#INFO: **** input file is /mmhome/boittier/home/mmml/.venv/bin/mmml ****
#!/mmhome/boittier/home/mmml/.venv/bin/python3
# -*- coding: utf-8 -*-
import sys
from mmml.cli.__main__ import main
if __name__ == "__main__":
    if sys.argv[0].endswith("-script.pyw"):
        sys.argv[0] = sys.argv[0][:-11]
    elif sys.argv[0].endswith(".exe"):
        sys.argv[0] = sys.argv[0][:-4]
    sys.exit(main())
#INFO: ******************** input file end ********************


System: uname_result(system='Linux', node='gpu08', release='5.15.0-118-generic', version='#128-Ubuntu SMP Fri Jul 5 09:28:59 UTC 2024', machine='x86_64')  Threads 32
Python 3.13.12 | packaged by conda-forge | (main, Feb  5 2026, 05:53:46) [GCC 14.3.0]
numpy 2.3.5  scipy 1.17.0  h5py 3.15.1
Date: Tue Mar 17 13:17:05 2026
PySCF version 2.12.1
PySCF path  /mmhome/boittier/home/mmml/.venv/lib/python3.13/site-packages/pyscf/__init__.py
CUDA Environment
    CuPy 14.0.0
    CUDA Path /mmhome/boittier/home/mmml/.venv/lib/python3.13/site-packages/nvidia/cu13
    CUDA Build Version 13000
    CUDA Driver Version 13000
    CUDA Runtime Version 13000
CUDA toolkit
    cuSolver (12, 0, 9)
    cuBLAS 130201
    cuTENSOR None
Device info
    Device name b'NVIDIA GeForce RTX 5090'
    Device global memory 31.36 GB
    CuPy memory fraction 0.9
    Num. Devices 2
GPU4PySCF 1.6.0
GPU4PySCF path  /mmhome/boittier/home/mmml/.venv/lib/python3.13/site-packages/gpu4pyscf

[CONFIG] conf_file None
[INPUT] verbose = 6
[INPUT] max_memory = 4000 
[INPUT] num. atoms = 16
[INPUT] num. electrons = 62
[INPUT] charge = 0
[INPUT] spin (= nelec alpha-beta = 2S) = 0
[INPUT] symmetry False subgroup None
[INPUT] Mole.unit = angstrom
[INPUT] Symbol           X                Y                Z      unit          X                Y                Z       unit  Magmom
[INPUT]  1 C      2.265242590000   0.619847370000   0.289198060000 AA    4.280688100800   1.171341768332   0.546505129156 Bohr   0.0
[INPUT]  2 H      3.313124570000   0.514122230000   0.531001690000 AA    6.260898053867   0.971550209251   1.003447765781 Bohr   0.0
[INPUT]  3 C      1.880532660000   1.071876890000  -0.978763330000 AA    3.553691695700   2.025553761351  -1.849594634467 Bohr   0.0
[INPUT]  4 H      2.632464470000   1.315864070000  -1.716482050000 AA    4.974636880948   2.486622709456  -3.243680972232 Bohr   0.0
[INPUT]  5 C      0.523276450000   1.212025590000  -1.290293160000 AA    0.988849177935   2.290396421064  -2.438300692800 Bohr   0.0
[INPUT]  6 H      0.227777070000   1.566042090000  -2.267525380000 AA    0.430436279756   2.959390649641  -4.285001948700 Bohr   0.0
[INPUT]  7 C     -0.450865610000   0.895972380000  -0.333907200000 AA   -0.852012521885   1.693142413375  -0.630993159020 Bohr   0.0
[INPUT]  8 H     -1.495598830000   1.010383780000  -0.584592530000 AA   -2.826272180920   1.909348624903  -1.104719776167 Bohr   0.0
[INPUT]  9 C     -0.079177560000   0.430192860000   0.939894000000 AA   -0.149623903611   0.812946686143   1.776142246122 Bohr   0.0
[INPUT] 10 C      1.291266090000   0.306752690000   1.245471840000 AA    2.440139264038   0.579678572074   2.353600673458 Bohr   0.0
[INPUT] 11 H      1.599902560000  -0.037023140000   2.222434190000 AA    3.023377664391  -0.069963594871   4.199791948970 Bohr   0.0
[INPUT] 12 C     -1.151800940000   0.120055880000   1.962287750000 AA   -2.176588326617   0.226872732844   3.708186425089 Bohr   0.0
[INPUT] 13 H     -2.112565920000  -0.061532030000   1.435743210000 AA   -3.992171008890  -0.116278684589   2.713161452104 Bohr   0.0
[INPUT] 14 H     -1.264017170000   1.013115390000   2.611870370000 AA   -2.388646268048   1.914510619682   4.935719672166 Bohr   0.0
[INPUT] 15 C     -0.896039550000  -1.044039270000   2.824921360000 AA   -1.693269346279  -1.972948283591   5.338327693834 Bohr   0.0
[INPUT] 16 N     -0.689137710000  -1.964815420000   3.531437970000 AA   -1.302281534010  -3.712963029122   6.673450589190 Bohr   0.0
[INPUT] ---------------- BASIS SET ---------------- 
[INPUT] l, kappa, [nprim/nctr], expnt,             c_1 c_2 ...
[INPUT] N
[INPUT] 0    0    [5    /1   ]  1712.8415853      -0.0053934125305
                                257.64812677      -0.040221581118
                                58.458245853      -0.1793114499
                                16.198367905      -0.46376317823
                                5.0052600809      -0.44171422662
[INPUT] 0    0    [1    /1   ]  0.58731856571        1
[INPUT] 0    0    [1    /1   ]  0.18764592253        1
[INPUT] 1    0    [3    /1   ]  13.571470233      -0.040072398852
                                2.9257372874      -0.21807045028
                                0.79927750754     -0.51294466049
[INPUT] 1    0    [1    /1   ]  0.21954348034        1
[INPUT] 2    0    [1    /1   ]  1                    1
[INPUT] C
[INPUT] 0    0    [5    /1   ]  1238.4016938      0.0054568832082
                                186.29004992      0.040638409211
                                42.251176346      0.18025593888
                                11.676557932      0.46315121755
                                3.5930506482      0.44087173314
[INPUT] 0    0    [1    /1   ]  0.40245147363        1
[INPUT] 0    0    [1    /1   ]  0.13090182668        1
[INPUT] 1    0    [3    /1   ]  9.4680970621      0.038387871728
                                2.0103545142      0.21117025112
                                0.54771004707     0.51328172114
[INPUT] 1    0    [1    /1   ]  0.15268613795        1
[INPUT] 2    0    [1    /1   ]  0.8                  1
[INPUT] H
[INPUT] 0    0    [3    /1   ]  13.010701         0.019682158
                                1.9622572         0.13796524
                                0.44453796        0.47831935
[INPUT] 0    0    [1    /1   ]  0.12194962           1
[INPUT] 1    0    [1    /1   ]  0.8                  1

nuclear repulsion = 370.481269795644
number of shells = 75
number of NR pGTOs = 265
number of NR cGTOs = 161
basis = def2-SVP
ecp = {}
CPU time:         5.20


******** <class 'gpu4pyscf.df.df_jk.DFRKS'> ********
method = DFRKS
initial guess = minao
damping factor = None
level_shift factor = None
DIIS = <class 'gpu4pyscf.scf.diis.CDIIS'>
diis_start_cycle = 1
diis_space = 8
diis_damp = 0
SCF conv_tol = 1e-10
SCF conv_tol_grad = None
SCF max_cycles = 50
direct_scf = False
XC library gpu4pyscf.dft.libxc version 7.0.0 (CUDA)
    unable to decode the reference due to https://github.com/NVIDIA/cuda-python/issues/29
XC functionals = PBE0
radial grids: 
Treutler-Ahlrichs [JCP 102, 346 (1995); DOI:10.1063/1.469408] (M4) radial grids

becke partition: Becke, JCP 88, 2547 (1988); DOI:10.1063/1.454033
pruning grids: <function nwchem_prune at 0x1485f4acd440>
grids dens level: 3
symmetrized grids: False
atomic radii adjust function: <function treutler_atomic_radii_adjust at 0x1485f4acd4e0>
User specified grid scheme (99, 590)
small_rho_cutoff = 1e-07
Set gradient conv threshold to 1e-05
    CPU time for generating initial guess                                0.34 sec, wall time      0.12 sec, GPU time    124.69 ms
Number of shells for each [l, nprim] group
    [0 5] : 9
    [0 3] : 7
    [0 1] : 25
    [1 3] : 9
    [1 1] : 16
    [2 1] : 9
sp_blocks = 21, ksh_blocks = 1, shm_size = 59512 B
    CPU time for processing contract_int3c2e_auxvec                      0.00 sec, wall time      0.02 sec, GPU time     19.47 ms
Number of shells for each [l, nprim] group
    [0 5] : 9
    [0 3] : 7
    [0 1] : 25
    [1 3] : 9
    [1 1] : 16
    [2 1] : 9
Number of shells for each [l, nprim] group
    [0 5] : 9
    [0 3] : 7
    [0 1] : 25
    [1 3] : 9
    [1 1] : 16
    [2 1] : 9
    CPU time for hcore                                                   0.19 sec, wall time      1.05 sec, GPU time   1048.29 ms
atom C rad-grids = 99, ang-grids = [ 50  50  50  50  50  50  50  50  50  50  50  50  50  50  50  50  50  50
  50  50  50  50  50  50  50  50  50  50  50  50  86  86  86  86  86  86
  86  86  86  86  86  86 434 434 434 434 434 434 434 434 434 590 590 590
 590 590 590 590 590 590 590 590 590 590 590 590 590 590 590 590 590 590
 590 590 590 590 590 434 434 434 434 434 434 434 434 434 434 434 434 434
 434 434 434 434 434 434 434 434 434]
atom H rad-grids = 99, ang-grids = [ 50  50  50  50  50  50  50  50  50  50  50  50  50  50  50  50  50  50
  50  50  50  50  50  50  50  50  50  50  50  50  86  86  86  86  86  86
  86 434 434 434 434 434 434 434 434 434 434 590 590 590 590 590 590 590
 590 590 590 590 590 590 590 590 590 590 590 590 590 590 590 590 590 590
 590 590 434 434 434 434 434 434 434 434 434 434 434 434 434 434 434 434
 434 434 434 434 434 434 434 434 434]
atom N rad-grids = 99, ang-grids = [ 50  50  50  50  50  50  50  50  50  50  50  50  50  50  50  50  50  50
  50  50  50  50  50  50  50  50  50  50  50  50  50  86  86  86  86  86
  86  86  86  86  86  86  86  86 434 434 434 434 434 434 434 434 434 590
 590 590 590 590 590 590 590 590 590 590 590 590 590 590 590 590 590 590
 590 590 590 590 590 590 590 434 434 434 434 434 434 434 434 434 434 434
 434 434 434 434 434 434 434 434 434]
    CPU time for generating atomic grids                                 0.01 sec, wall time      0.02 sec, GPU time     20.43 ms
Padding 36 grids
    CPU time for sorting grids                                           0.02 sec, wall time      0.05 sec, GPU time     43.33 ms
tot grids = 513792
Number of shells for each [l, nctr] group
    [0 1] : 25
    [0 3] : 7
    [0 5] : 9
    [1 1] : 16
    [1 3] : 9
    [2 1] : 9
0 - 513792 grids are calculated on Device 0.
mem_info: unallocated=31470.06 MB, used=26.34 MB, free=32.80 MB, free_blocks=18
33033.148416 MB memory is available on Device 0, block_size None
    CPU time for eval rho                                                0.04 sec, wall time      0.07 sec, GPU time     77.75 ms
Drop grids 77031
prune_by_density_: 231 padding grids
    CPU time for setting up grids                                        0.07 sec, wall time      0.19 sec, GPU time    190.20 ms
221184 grids on Device 0
0 - 221184 grids are calculated on Device 0.
mem_info: unallocated=31682.06 MB, used=32.86 MB, free=38.03 MB, free_blocks=20
33260.932608 MB memory is available on Device 0, block_size None
215808 grids on Device 1
221184 - 436992 grids are calculated on Device 1.
mem_info: unallocated=31584.06 MB, used=13.66 MB, free=0.00 MB, free_blocks=0
33118.28992 MB memory is available on Device 1, block_size None
    CPU time for eval rho on Device 0                                    0.14 sec, wall time      0.11 sec, GPU time    114.29 ms
    CPU time for eval rho on Device 1                                    0.12 sec, wall time      0.07 sec, GPU time     78.26 ms
    CPU time for eval vxc on Device 0                                    0.14 sec, wall time      0.12 sec, GPU time    114.07 ms
0 - 221184 grids are calculated on Device 0.
mem_info: unallocated=31586.06 MB, used=51.13 MB, free=49.28 MB, free_blocks=21
33172.056064 MB memory is available on Device 0, block_size None
    CPU time for eval vxc on Device 1                                    0.09 sec, wall time      0.09 sec, GPU time     82.76 ms
221184 - 436992 grids are calculated on Device 1.
mem_info: unallocated=31460.06 MB, used=32.05 MB, free=32.65 MB, free_blocks=7
33022.497792 MB memory is available on Device 1, block_size None
    CPU time for eval integration on 0                                   0.02 sec, wall time      0.01 sec, GPU time     20.57 ms
    CPU time for eval integration on 1                                   0.02 sec, wall time      0.01 sec, GPU time     23.52 ms
    CPU time for nr_rks                                                  0.33 sec, wall time      0.26 sec, GPU time    264.53 ms
nelec by numeric integration = 61.96707145588123
    CPU time for vxc                                                     0.40 sec, wall time      0.45 sec, GPU time    454.84 ms
Build CDERI ...
Psi4 predefined JKFIT basis set def2-svp-jkfit for HF
Default auxbasis def2-svp-jkfit is applied universally
num shells = 267, num cGTOs = 803
    CPU time for 2c2e                                                    0.02 sec, wall time      0.01 sec, GPU time     11.42 ms
Number of shells for each [l, nctr] group
    [0 1] : 25
    [0 3] : 7
    [0 5] : 9
    [1 1] : 16
    [1 3] : 9
    [2 1] : 9
Number of shells for each [l, nctr] group
    [0 1] : 88
    [0 3] : 7
    [0 5] : 9
    [1 1] : 77
    [1 3] : 9
    [2 1] : 49
    [2 2] : 8
    [2 3] : 1
    [3 1] : 2
    [3 2] : 8
    [4 1] : 9
    CPU time for Initialize q_cond                                       0.13 sec, wall time      0.00 sec, GPU time      1.54 ms
    CPU time for Get AO pairing                                          0.00 sec, wall time      0.00 sec, GPU time      0.29 ms
    CPU time for AO indices                                              0.00 sec, wall time      0.00 sec, GPU time      0.11 ms
    CPU time for Aux AO indices                                          0.00 sec, wall time      0.00 sec, GPU time      0.24 ms
    CPU time for Get AO pairs                                            0.00 sec, wall time      0.00 sec, GPU time      0.40 ms
    CPU time for prepare intopt                                          0.13 sec, wall time      0.00 sec, GPU time      4.69 ms
size of aux basis 803
Saving CDERI on GPU
CDERI size 0.038 GB on Device 0
CDERI size 0.036 GB on Device 1
    CPU time for Initialize GPU cache on Device 1                        0.00 sec, wall time      0.00 sec, GPU time      0.56 ms
    CPU time for Initialize GPU cache on Device 0                        0.00 sec, wall time      0.00 sec, GPU time      0.87 ms
    CPU time for solve 2 / 21 on Device 1                                0.06 sec, wall time      0.06 sec, GPU time     63.57 ms
    CPU time for solve 5 / 21 on Device 0                                0.06 sec, wall time      0.06 sec, GPU time     64.34 ms
    CPU time for transfer data for 2 / 21 on Device 1                    0.00 sec, wall time      0.00 sec, GPU time      0.58 ms
    CPU time for transfer data for 5 / 21 on Device 0                    0.00 sec, wall time      0.00 sec, GPU time      0.28 ms
    CPU time for solve 1 / 21 on Device 1                                0.00 sec, wall time      0.00 sec, GPU time      2.23 ms
    CPU time for transfer data for 1 / 21 on Device 1                    0.00 sec, wall time      0.00 sec, GPU time      0.15 ms
    CPU time for solve 4 / 21 on Device 0                                0.00 sec, wall time      0.00 sec, GPU time      3.66 ms
    CPU time for transfer data for 4 / 21 on Device 0                    0.00 sec, wall time      0.00 sec, GPU time      0.19 ms
    CPU time for solve 12 / 21 on Device 1                               0.01 sec, wall time      0.00 sec, GPU time      4.73 ms
    CPU time for solve 11 / 21 on Device 0                               0.00 sec, wall time      0.00 sec, GPU time      3.54 ms
    CPU time for transfer data for 12 / 21 on Device 1                   0.00 sec, wall time      0.00 sec, GPU time      0.58 ms
    CPU time for transfer data for 11 / 21 on Device 0                   0.00 sec, wall time      0.00 sec, GPU time      0.23 ms
    CPU time for solve 3 / 21 on Device 0                                0.00 sec, wall time      0.00 sec, GPU time      2.50 ms
    CPU time for solve 16 / 21 on Device 1                               0.00 sec, wall time      0.00 sec, GPU time      2.82 ms
    CPU time for transfer data for 3 / 21 on Device 0                    0.00 sec, wall time      0.00 sec, GPU time      0.18 ms
    CPU time for transfer data for 16 / 21 on Device 1                   0.00 sec, wall time      0.00 sec, GPU time      0.17 ms
    CPU time for solve 7 / 21 on Device 1                                0.00 sec, wall time      0.00 sec, GPU time      2.43 ms
    CPU time for transfer data for 7 / 21 on Device 1                    0.09 sec, wall time      0.09 sec, GPU time     88.24 ms
    CPU time for solve 17 / 21 on Device 0                               0.09 sec, wall time      0.09 sec, GPU time     91.01 ms
    CPU time for transfer data for 17 / 21 on Device 0                   0.00 sec, wall time      0.00 sec, GPU time      0.42 ms
    CPU time for solve 0 / 21 on Device 0                                0.00 sec, wall time      0.00 sec, GPU time      2.32 ms
    CPU time for transfer data for 0 / 21 on Device 0                    0.00 sec, wall time      0.00 sec, GPU time      0.48 ms
    CPU time for solve 14 / 21 on Device 1                               0.01 sec, wall time      0.01 sec, GPU time      5.95 ms
    CPU time for solve 8 / 21 on Device 0                                0.00 sec, wall time      0.00 sec, GPU time      3.19 ms
    CPU time for transfer data for 14 / 21 on Device 1                   0.00 sec, wall time      0.00 sec, GPU time      0.74 ms
    CPU time for transfer data for 8 / 21 on Device 0                    0.00 sec, wall time      0.00 sec, GPU time      0.32 ms
    CPU time for solve 10 / 21 on Device 1                               0.00 sec, wall time      0.00 sec, GPU time      2.93 ms
    CPU time for solve 20 / 21 on Device 0                               0.00 sec, wall time      0.00 sec, GPU time      3.30 ms
    CPU time for transfer data for 10 / 21 on Device 1                   0.00 sec, wall time      0.00 sec, GPU time      0.71 ms
    CPU time for transfer data for 20 / 21 on Device 0                   0.00 sec, wall time      0.00 sec, GPU time      0.36 ms
    CPU time for solve 15 / 21 on Device 1                               0.00 sec, wall time      0.00 sec, GPU time      3.71 ms
    CPU time for solve 9 / 21 on Device 0                                0.00 sec, wall time      0.00 sec, GPU time      3.47 ms
    CPU time for transfer data for 15 / 21 on Device 1                   0.00 sec, wall time      0.00 sec, GPU time      0.47 ms
    CPU time for transfer data for 9 / 21 on Device 0                    0.00 sec, wall time      0.00 sec, GPU time      0.45 ms
    CPU time for solve 6 / 21 on Device 0                                0.00 sec, wall time      0.00 sec, GPU time      3.00 ms
    CPU time for solve 19 / 21 on Device 1                               0.00 sec, wall time      0.00 sec, GPU time      3.94 ms
    CPU time for transfer data for 6 / 21 on Device 0                    0.00 sec, wall time      0.00 sec, GPU time      1.06 ms
    CPU time for transfer data for 19 / 21 on Device 1                   0.00 sec, wall time      0.00 sec, GPU time      0.29 ms
    CPU time for solve 13 / 21 on Device 1                               0.00 sec, wall time      0.00 sec, GPU time      3.61 ms
    CPU time for solve 18 / 21 on Device 0                               0.01 sec, wall time      0.00 sec, GPU time      4.39 ms
    CPU time for transfer data for 13 / 21 on Device 1                   0.00 sec, wall time      0.00 sec, GPU time      0.76 ms
    CPU time for transfer data for 18 / 21 on Device 0                   0.00 sec, wall time      0.00 sec, GPU time      0.34 ms
    CPU time for cholesky_eri                                            0.49 sec, wall time      0.22 sec, GPU time    220.65 ms
    CPU time for init jk                                                 0.51 sec, wall time      0.23 sec, GPU time    232.31 ms
30.230 GB memory available on Device 0, block size = 256
33.080 GB memory available on Device 1, block size = 256
    CPU time for vj and vk on Device 1                                   0.02 sec, wall time      0.02 sec, GPU time     24.49 ms
    CPU time for vj and vk on Device 0                                   0.02 sec, wall time      0.02 sec, GPU time     25.16 ms
    CPU time for vj and vk                                               0.02 sec, wall time      0.03 sec, GPU time     31.47 ms
    CPU time for veff                                                    0.54 sec, wall time      0.49 sec, GPU time    489.86 ms
E1 = -1219.6994102677286  Ecoul = 537.4095530712341  Exc = -52.5086592884336
init E= -364.317246689285
cond(S) = 20969.80395192901
    CPU time for SCF initialization                                      1.49 sec, wall time      2.16 sec, GPU time   2156.93 ms
    CPU time for DIIS                                                    0.00 sec, wall time      0.00 sec, GPU time      0.44 ms
    CPU time for eig                                                     0.00 sec, wall time      0.00 sec, GPU time      3.87 ms
  HOMO = -0.294852220397395  LUMO = -0.0912333210981142
221184 grids on Device 0
215808 grids on Device 1
0 - 221184 grids are calculated on Device 0.
mem_info: unallocated=31272.06 MB, used=82.52 MB, free=285.89 MB, free_blocks=32
33090.91328 MB memory is available on Device 0, block_size None
221184 - 436992 grids are calculated on Device 1.
mem_info: unallocated=31282.06 MB, used=49.98 MB, free=248.44 MB, free_blocks=12
33062.127616 MB memory is available on Device 1, block_size None
    CPU time for eval rho on Device 0                                    0.01 sec, wall time      0.02 sec, GPU time     24.33 ms
    CPU time for eval vxc on Device 0                                    0.01 sec, wall time      0.01 sec, GPU time      0.76 ms
0 - 221184 grids are calculated on Device 0.
mem_info: unallocated=31208.06 MB, used=100.74 MB, free=267.67 MB, free_blocks=32
33004.696064 MB memory is available on Device 0, block_size None
    CPU time for eval integration on 0                                   0.01 sec, wall time      0.01 sec, GPU time     13.11 ms
    CPU time for eval rho on Device 1                                    0.03 sec, wall time      0.03 sec, GPU time     44.59 ms
    CPU time for eval vxc on Device 1                                    0.02 sec, wall time      0.01 sec, GPU time      0.59 ms
221184 - 436992 grids are calculated on Device 1.
mem_info: unallocated=31218.06 MB, used=68.33 MB, free=230.09 MB, free_blocks=14
32975.77728 MB memory is available on Device 1, block_size None
    CPU time for eval integration on 1                                   0.00 sec, wall time      0.00 sec, GPU time     14.69 ms
    CPU time for nr_rks                                                  0.07 sec, wall time      0.06 sec, GPU time     62.32 ms
nelec by numeric integration = 61.99999975358967
    CPU time for vxc                                                     0.07 sec, wall time      0.06 sec, GPU time     62.42 ms
30.229 GB memory available on Device 0, block size = 256
33.076 GB memory available on Device 1, block size = 256
    CPU time for vj and vk on Device 1                                   0.01 sec, wall time      0.00 sec, GPU time      4.56 ms
    CPU time for vj and vk on Device 0                                   0.01 sec, wall time      0.00 sec, GPU time      4.86 ms
    CPU time for vj and vk                                               0.01 sec, wall time      0.01 sec, GPU time      6.63 ms
    CPU time for veff                                                    0.01 sec, wall time      0.01 sec, GPU time      7.14 ms
    CPU time for veff                                                    0.09 sec, wall time      0.09 sec, GPU time     85.39 ms
E1 = -1224.478055641686  Ecoul = 543.479502709906  Exc = -52.52083483632199
    CPU time for cycle=1                                                 0.09 sec, wall time      0.10 sec, GPU time    100.71 ms
cycle= 1 E= -363.038117972458  delta_E= 1.28  |g|= 0.484  |ddm|= 4.95
diis-c [-0.2344518  1.       ]
    CPU time for DIIS                                                    0.00 sec, wall time      0.01 sec, GPU time     13.20 ms
    CPU time for eig                                                     0.00 sec, wall time      0.00 sec, GPU time      4.20 ms
  HOMO = -0.244030540890126  LUMO = -0.00284488112918075
221184 grids on Device 0
215808 grids on Device 1
0 - 221184 grids are calculated on Device 0.
221184 - 436992 grids are calculated on Device 1.
mem_info: unallocated=31272.06 MB, used=82.72 MB, free=285.69 MB, free_blocks=32
mem_info: unallocated=31282.06 MB, used=49.98 MB, free=248.44 MB, free_blocks=12
33090.70336 MB memory is available on Device 0, block_size None
33062.127616 MB memory is available on Device 1, block_size None
    CPU time for eval rho on Device 0                                    0.02 sec, wall time      0.01 sec, GPU time     14.08 ms
    CPU time for eval rho on Device 1                                    0.02 sec, wall time      0.01 sec, GPU time     15.07 ms
    CPU time for eval vxc on Device 0                                    0.01 sec, wall time      0.00 sec, GPU time      1.69 ms
0 - 221184 grids are calculated on Device 0.
mem_info: unallocated=31208.06 MB, used=100.94 MB, free=267.47 MB, free_blocks=32
33004.486144 MB memory is available on Device 0, block_size None
    CPU time for eval vxc on Device 1                                    0.01 sec, wall time      0.00 sec, GPU time      0.87 ms
221184 - 436992 grids are calculated on Device 1.
mem_info: unallocated=31218.06 MB, used=68.33 MB, free=230.09 MB, free_blocks=14
32975.77728 MB memory is available on Device 1, block_size None
    CPU time for eval integration on 0                                   0.01 sec, wall time      0.01 sec, GPU time     14.84 ms
    CPU time for eval integration on 1                                   0.01 sec, wall time      0.01 sec, GPU time     18.63 ms
    CPU time for nr_rks                                                  0.06 sec, wall time      0.04 sec, GPU time     36.13 ms
nelec by numeric integration = 61.99999970701063
    CPU time for vxc                                                     0.06 sec, wall time      0.04 sec, GPU time     36.18 ms
30.229 GB memory available on Device 0, block size = 256
33.076 GB memory available on Device 1, block size = 256
    CPU time for vj and vk on Device 1                                   0.00 sec, wall time      0.00 sec, GPU time      2.93 ms
    CPU time for vj and vk on Device 0                                   0.00 sec, wall time      0.00 sec, GPU time      3.08 ms
    CPU time for vj and vk                                               0.01 sec, wall time      0.00 sec, GPU time      3.94 ms
    CPU time for veff                                                    0.01 sec, wall time      0.00 sec, GPU time      4.23 ms
    CPU time for veff                                                    0.07 sec, wall time      0.04 sec, GPU time     40.86 ms
E1 = -1221.6264896409712  Ecoul = 540.4039038837138  Exc = -52.095090893285764
    CPU time for cycle=2                                                 0.07 sec, wall time      0.06 sec, GPU time     58.65 ms
cycle= 2 E= -362.8364068549  delta_E= 0.202  |g|= 1.06  |ddm|= 1.42
diis-c [-0.02340587  0.69542362  0.30457638]
    CPU time for DIIS                                                    0.00 sec, wall time      0.00 sec, GPU time      0.45 ms
    CPU time for eig                                                     0.00 sec, wall time      0.00 sec, GPU time      4.11 ms
  HOMO = -0.257861919978909  LUMO = -0.00686512151640962
221184 grids on Device 0
215808 grids on Device 1
0 - 221184 grids are calculated on Device 0.
mem_info: unallocated=31272.06 MB, used=82.92 MB, free=285.49 MB, free_blocks=34
33090.494464 MB memory is available on Device 0, block_size None
221184 - 436992 grids are calculated on Device 1.
mem_info: unallocated=31282.06 MB, used=49.98 MB, free=248.44 MB, free_blocks=12
33062.127616 MB memory is available on Device 1, block_size None
    CPU time for eval rho on Device 0                                    0.02 sec, wall time      0.01 sec, GPU time     14.11 ms
    CPU time for eval rho on Device 1                                    0.02 sec, wall time      0.01 sec, GPU time     15.21 ms
    CPU time for eval vxc on Device 0                                    0.01 sec, wall time      0.00 sec, GPU time      1.97 ms
0 - 221184 grids are calculated on Device 0.
mem_info: unallocated=31208.06 MB, used=101.14 MB, free=267.27 MB, free_blocks=33
33004.277248 MB memory is available on Device 0, block_size None
    CPU time for eval vxc on Device 1                                    0.01 sec, wall time      0.00 sec, GPU time      0.90 ms
221184 - 436992 grids are calculated on Device 1.
mem_info: unallocated=31218.06 MB, used=68.33 MB, free=230.09 MB, free_blocks=14
32975.77728 MB memory is available on Device 1, block_size None
    CPU time for eval integration on 0                                   0.01 sec, wall time      0.01 sec, GPU time     14.22 ms
    CPU time for eval integration on 1                                   0.01 sec, wall time      0.01 sec, GPU time     17.94 ms
    CPU time for nr_rks                                                  0.06 sec, wall time      0.04 sec, GPU time     35.83 ms
nelec by numeric integration = 61.99999970046724
    CPU time for vxc                                                     0.06 sec, wall time      0.04 sec, GPU time     35.91 ms
33.076 GB memory available on Device 1, block size = 256
30.229 GB memory available on Device 0, block size = 256
    CPU time for vj and vk on Device 1                                   0.00 sec, wall time      0.00 sec, GPU time      3.61 ms
    CPU time for vj and vk on Device 0                                   0.00 sec, wall time      0.00 sec, GPU time      4.18 ms
    CPU time for vj and vk                                               0.01 sec, wall time      0.01 sec, GPU time      5.45 ms
    CPU time for veff                                                    0.01 sec, wall time      0.01 sec, GPU time      5.72 ms
    CPU time for veff                                                    0.07 sec, wall time      0.04 sec, GPU time     42.04 ms
E1 = -1221.5533565152296  Ecoul = 540.2175193826145  Exc = -52.243492887666505
    CPU time for cycle=3                                                 0.07 sec, wall time      0.05 sec, GPU time     46.98 ms
cycle= 3 E= -363.098060224638  delta_E= -0.262  |g|= 0.126  |ddm|= 0.912
diis-c [-0.00302044  0.27765572  0.14508318  0.5772611 ]
    CPU time for DIIS                                                    0.00 sec, wall time      0.00 sec, GPU time      0.46 ms
    CPU time for eig                                                     0.00 sec, wall time      0.00 sec, GPU time      4.08 ms
  HOMO = -0.277984397588761  LUMO = -0.0252675371008849
221184 grids on Device 0
215808 grids on Device 1
0 - 221184 grids are calculated on Device 0.
mem_info: unallocated=31272.06 MB, used=83.12 MB, free=285.29 MB, free_blocks=33
33090.285568 MB memory is available on Device 0, block_size None
221184 - 436992 grids are calculated on Device 1.
mem_info: unallocated=31282.06 MB, used=49.98 MB, free=248.44 MB, free_blocks=12
33062.127616 MB memory is available on Device 1, block_size None
    CPU time for eval rho on Device 0                                    0.02 sec, wall time      0.01 sec, GPU time     14.09 ms
    CPU time for eval rho on Device 1                                    0.02 sec, wall time      0.01 sec, GPU time     15.21 ms
    CPU time for eval vxc on Device 0                                    0.01 sec, wall time      0.00 sec, GPU time      2.03 ms
0 - 221184 grids are calculated on Device 0.
mem_info: unallocated=31208.06 MB, used=101.34 MB, free=267.07 MB, free_blocks=33
33004.068352 MB memory is available on Device 0, block_size None
    CPU time for eval vxc on Device 1                                    0.01 sec, wall time      0.00 sec, GPU time      0.90 ms
221184 - 436992 grids are calculated on Device 1.
mem_info: unallocated=31218.06 MB, used=68.33 MB, free=230.09 MB, free_blocks=14
32975.77728 MB memory is available on Device 1, block_size None
    CPU time for eval integration on 0                                   0.01 sec, wall time      0.01 sec, GPU time     14.45 ms
    CPU time for eval integration on 1                                   0.01 sec, wall time      0.01 sec, GPU time     18.21 ms
    CPU time for nr_rks                                                  0.06 sec, wall time      0.04 sec, GPU time     36.14 ms
nelec by numeric integration = 61.99999969295014
    CPU time for vxc                                                     0.06 sec, wall time      0.04 sec, GPU time     36.21 ms
30.228 GB memory available on Device 0, block size = 256
33.076 GB memory available on Device 1, block size = 256
    CPU time for vj and vk on Device 0                                   0.00 sec, wall time      0.00 sec, GPU time      3.02 ms
    CPU time for vj and vk on Device 1                                   0.00 sec, wall time      0.00 sec, GPU time      2.85 ms
    CPU time for vj and vk                                               0.01 sec, wall time      0.00 sec, GPU time      4.39 ms
    CPU time for veff                                                    0.01 sec, wall time      0.00 sec, GPU time      4.77 ms
    CPU time for veff                                                    0.07 sec, wall time      0.04 sec, GPU time     41.40 ms
E1 = -1222.7898115019834  Ecoul = 541.5140869038648  Exc = -52.30749010329275
    CPU time for cycle=4                                                 0.07 sec, wall time      0.05 sec, GPU time     46.33 ms
cycle= 4 E= -363.101944905768  delta_E= -0.00388  |g|= 0.0358  |ddm|= 0.181
diis-c [-1.15606313e-04  5.93817644e-03  3.77298239e-04  2.10878637e-01
  7.82805888e-01]
    CPU time for DIIS                                                    0.00 sec, wall time      0.00 sec, GPU time      0.53 ms
    CPU time for eig                                                     0.00 sec, wall time      0.00 sec, GPU time      4.10 ms
  HOMO = -0.274368143762811  LUMO = -0.0217912087670963
221184 grids on Device 0
215808 grids on Device 1
0 - 221184 grids are calculated on Device 0.
mem_info: unallocated=31272.06 MB, used=83.32 MB, free=285.09 MB, free_blocks=34
221184 - 436992 grids are calculated on Device 1.
33090.076672 MB memory is available on Device 0, block_size None
mem_info: unallocated=31282.06 MB, used=49.98 MB, free=248.44 MB, free_blocks=12
33062.127616 MB memory is available on Device 1, block_size None
    CPU time for eval rho on Device 0                                    0.02 sec, wall time      0.01 sec, GPU time     14.08 ms
    CPU time for eval rho on Device 1                                    0.02 sec, wall time      0.01 sec, GPU time     14.97 ms
    CPU time for eval vxc on Device 0                                    0.01 sec, wall time      0.00 sec, GPU time      1.66 ms
0 - 221184 grids are calculated on Device 0.
mem_info: unallocated=31208.06 MB, used=101.54 MB, free=266.87 MB, free_blocks=34
33003.859456 MB memory is available on Device 0, block_size None
    CPU time for eval vxc on Device 1                                    0.01 sec, wall time      0.00 sec, GPU time      0.84 ms
221184 - 436992 grids are calculated on Device 1.
mem_info: unallocated=31218.06 MB, used=68.33 MB, free=230.09 MB, free_blocks=14
32975.77728 MB memory is available on Device 1, block_size None
    CPU time for eval integration on 0                                   0.01 sec, wall time      0.01 sec, GPU time     14.31 ms
    CPU time for eval integration on 1                                   0.01 sec, wall time      0.01 sec, GPU time     18.09 ms
    CPU time for nr_rks                                                  0.06 sec, wall time      0.04 sec, GPU time     35.57 ms
nelec by numeric integration = 61.999999694754116
    CPU time for vxc                                                     0.06 sec, wall time      0.04 sec, GPU time     35.64 ms
33.076 GB memory available on Device 1, block size = 256
30.228 GB memory available on Device 0, block size = 256
    CPU time for vj and vk on Device 1                                   0.00 sec, wall time      0.00 sec, GPU time      3.50 ms
    CPU time for vj and vk on Device 0                                   0.00 sec, wall time      0.00 sec, GPU time      4.14 ms
    CPU time for vj and vk                                               0.01 sec, wall time      0.01 sec, GPU time      5.10 ms
    CPU time for veff                                                    0.01 sec, wall time      0.01 sec, GPU time      5.37 ms
    CPU time for veff                                                    0.07 sec, wall time      0.04 sec, GPU time     41.42 ms
E1 = -1222.597673229408  Ecoul = 541.3162398543977  Exc = -52.30208010260645
    CPU time for cycle=5                                                 0.07 sec, wall time      0.05 sec, GPU time     46.42 ms
cycle= 5 E= -363.102243681973  delta_E= -0.000299  |g|= 0.00842  |ddm|= 0.0511
diis-c [-8.91690442e-06 -7.24273438e-03 -5.29874251e-03  7.69423743e-02
  3.47185696e-01  5.88413407e-01]
    CPU time for DIIS                                                    0.00 sec, wall time      0.00 sec, GPU time      0.55 ms
    CPU time for eig                                                     0.00 sec, wall time      0.00 sec, GPU time      4.06 ms
  HOMO = -0.274240637450097  LUMO = -0.0216433906550598
221184 grids on Device 0
215808 grids on Device 1
0 - 221184 grids are calculated on Device 0.
mem_info: unallocated=31272.06 MB, used=83.52 MB, free=284.89 MB, free_blocks=34
33089.867776 MB memory is available on Device 0, block_size None
221184 - 436992 grids are calculated on Device 1.
mem_info: unallocated=31282.06 MB, used=49.98 MB, free=248.44 MB, free_blocks=12
33062.127616 MB memory is available on Device 1, block_size None
    CPU time for eval rho on Device 0                                    0.02 sec, wall time      0.01 sec, GPU time     14.17 ms
    CPU time for eval rho on Device 1                                    0.02 sec, wall time      0.01 sec, GPU time     15.14 ms
    CPU time for eval vxc on Device 0                                    0.01 sec, wall time      0.00 sec, GPU time      1.83 ms
0 - 221184 grids are calculated on Device 0.
mem_info: unallocated=31208.06 MB, used=101.74 MB, free=266.67 MB, free_blocks=33
33003.65056 MB memory is available on Device 0, block_size None
    CPU time for eval vxc on Device 1                                    0.01 sec, wall time      0.00 sec, GPU time      0.82 ms
221184 - 436992 grids are calculated on Device 1.
mem_info: unallocated=31218.06 MB, used=68.33 MB, free=230.09 MB, free_blocks=14
32975.77728 MB memory is available on Device 1, block_size None
    CPU time for eval integration on 0                                   0.01 sec, wall time      0.01 sec, GPU time     14.22 ms
    CPU time for eval integration on 1                                   0.01 sec, wall time      0.01 sec, GPU time     18.61 ms
    CPU time for nr_rks                                                  0.06 sec, wall time      0.04 sec, GPU time     36.38 ms
nelec by numeric integration = 61.99999969362555
    CPU time for vxc                                                     0.06 sec, wall time      0.04 sec, GPU time     36.45 ms
30.228 GB memory available on Device 0, block size = 256
33.076 GB memory available on Device 1, block size = 256
    CPU time for vj and vk on Device 1                                   0.00 sec, wall time      0.00 sec, GPU time      2.86 ms
    CPU time for vj and vk on Device 0                                   0.00 sec, wall time      0.00 sec, GPU time      3.05 ms
    CPU time for vj and vk                                               0.01 sec, wall time      0.00 sec, GPU time      4.39 ms
    CPU time for veff                                                    0.01 sec, wall time      0.00 sec, GPU time      4.78 ms
    CPU time for veff                                                    0.07 sec, wall time      0.04 sec, GPU time     41.64 ms
E1 = -1222.5790241132183  Ecoul = 541.2948922790438  Exc = -52.29939821812953
    CPU time for cycle=6                                                 0.07 sec, wall time      0.05 sec, GPU time     46.64 ms
cycle= 6 E= -363.10226025666  delta_E= -1.66e-05  |g|= 0.00304  |ddm|= 0.0118
diis-c [-9.38586203e-07 -4.19364356e-03 -2.88904593e-03  2.68311155e-02
  1.27458818e-01  3.18269881e-01  5.34522875e-01]
    CPU time for DIIS                                                    0.00 sec, wall time      0.00 sec, GPU time      0.59 ms
    CPU time for eig                                                     0.00 sec, wall time      0.00 sec, GPU time      4.09 ms
  HOMO = -0.274261563738329  LUMO = -0.0216376609525014
221184 grids on Device 0
215808 grids on Device 1
0 - 221184 grids are calculated on Device 0.
mem_info: unallocated=31272.06 MB, used=83.71 MB, free=284.70 MB, free_blocks=36
33089.65888 MB memory is available on Device 0, block_size None
221184 - 436992 grids are calculated on Device 1.
mem_info: unallocated=31282.06 MB, used=49.98 MB, free=248.44 MB, free_blocks=12
33062.127616 MB memory is available on Device 1, block_size None
    CPU time for eval rho on Device 0                                    0.02 sec, wall time      0.01 sec, GPU time     14.38 ms
    CPU time for eval rho on Device 1                                    0.02 sec, wall time      0.01 sec, GPU time     15.50 ms
    CPU time for eval vxc on Device 0                                    0.01 sec, wall time      0.00 sec, GPU time      2.03 ms
0 - 221184 grids are calculated on Device 0.
mem_info: unallocated=31208.06 MB, used=101.94 MB, free=266.47 MB, free_blocks=35
33003.441664 MB memory is available on Device 0, block_size None
    CPU time for eval vxc on Device 1                                    0.01 sec, wall time      0.00 sec, GPU time      0.90 ms
221184 - 436992 grids are calculated on Device 1.
mem_info: unallocated=31218.06 MB, used=68.33 MB, free=230.09 MB, free_blocks=14
32975.77728 MB memory is available on Device 1, block_size None
    CPU time for eval integration on 0                                   0.01 sec, wall time      0.01 sec, GPU time     14.47 ms
    CPU time for eval integration on 1                                   0.01 sec, wall time      0.01 sec, GPU time     18.16 ms
    CPU time for nr_rks                                                  0.06 sec, wall time      0.04 sec, GPU time     36.36 ms
nelec by numeric integration = 61.99999969295608
    CPU time for vxc                                                     0.06 sec, wall time      0.04 sec, GPU time     36.43 ms
33.076 GB memory available on Device 1, block size = 256
30.228 GB memory available on Device 0, block size = 256
    CPU time for vj and vk on Device 1                                   0.00 sec, wall time      0.00 sec, GPU time      3.02 ms
    CPU time for vj and vk on Device 0                                   0.00 sec, wall time      0.00 sec, GPU time      3.44 ms
    CPU time for vj and vk                                               0.01 sec, wall time      0.00 sec, GPU time      4.75 ms
    CPU time for veff                                                    0.01 sec, wall time      0.01 sec, GPU time      5.14 ms
    CPU time for veff                                                    0.07 sec, wall time      0.04 sec, GPU time     41.98 ms
E1 = -1222.5755744263645  Ecoul = 541.2912163008757  Exc = -52.299174312515476
    CPU time for cycle=7                                                 0.07 sec, wall time      0.05 sec, GPU time     47.04 ms
cycle= 7 E= -363.102262642361  delta_E= -2.39e-06  |g|= 0.000962  |ddm|= 0.0043
diis-c [-7.97299460e-08 -1.50968617e-03 -1.07058043e-03  6.52485266e-03
  3.13850839e-02  1.10093890e-01  2.91624013e-01  5.62952427e-01]
    CPU time for DIIS                                                    0.00 sec, wall time      0.00 sec, GPU time      0.64 ms
    CPU time for eig                                                     0.00 sec, wall time      0.00 sec, GPU time      4.08 ms
  HOMO = -0.274244653500297  LUMO = -0.0216235921371138
221184 grids on Device 0
215808 grids on Device 1
0 - 221184 grids are calculated on Device 0.
mem_info: unallocated=31272.06 MB, used=83.91 MB, free=284.50 MB, free_blocks=37
33089.449984 MB memory is available on Device 0, block_size None
221184 - 436992 grids are calculated on Device 1.
mem_info: unallocated=31282.06 MB, used=49.98 MB, free=248.44 MB, free_blocks=12
33062.127616 MB memory is available on Device 1, block_size None
    CPU time for eval rho on Device 0                                    0.02 sec, wall time      0.01 sec, GPU time     14.28 ms
    CPU time for eval rho on Device 1                                    0.02 sec, wall time      0.01 sec, GPU time     15.20 ms
    CPU time for eval vxc on Device 0                                    0.01 sec, wall time      0.00 sec, GPU time      1.82 ms
0 - 221184 grids are calculated on Device 0.
mem_info: unallocated=31208.06 MB, used=102.14 MB, free=266.27 MB, free_blocks=36
33003.232768 MB memory is available on Device 0, block_size None
    CPU time for eval vxc on Device 1                                    0.01 sec, wall time      0.00 sec, GPU time      0.90 ms
221184 - 436992 grids are calculated on Device 1.
mem_info: unallocated=31218.06 MB, used=68.33 MB, free=230.09 MB, free_blocks=14
32975.77728 MB memory is available on Device 1, block_size None
    CPU time for eval integration on 0                                   0.01 sec, wall time      0.01 sec, GPU time     14.49 ms
    CPU time for eval integration on 1                                   0.01 sec, wall time      0.01 sec, GPU time     18.37 ms
    CPU time for nr_rks                                                  0.06 sec, wall time      0.04 sec, GPU time     36.29 ms
nelec by numeric integration = 61.99999969342688
    CPU time for vxc                                                     0.06 sec, wall time      0.04 sec, GPU time     36.36 ms
33.076 GB memory available on Device 1, block size = 256
30.228 GB memory available on Device 0, block size = 256
    CPU time for vj and vk on Device 1                                   0.00 sec, wall time      0.00 sec, GPU time      3.04 ms
    CPU time for vj and vk on Device 0                                   0.00 sec, wall time      0.00 sec, GPU time      3.43 ms
    CPU time for vj and vk                                               0.01 sec, wall time      0.00 sec, GPU time      4.34 ms
    CPU time for veff                                                    0.01 sec, wall time      0.00 sec, GPU time      4.63 ms
    CPU time for veff                                                    0.07 sec, wall time      0.04 sec, GPU time     41.40 ms
E1 = -1222.5773085953272  Ecoul = 541.2930668329718  Exc = -52.29929092490464
    CPU time for cycle=8                                                 0.07 sec, wall time      0.05 sec, GPU time     46.49 ms
cycle= 8 E= -363.102262891616  delta_E= -2.49e-07  |g|= 0.000238  |ddm|= 0.00137
diis-c [-9.04364676e-09 -3.64034724e-04 -3.10855443e-04  9.43500853e-04
  4.18762372e-03  2.58244968e-02  9.16297235e-02  2.55488988e-01
  6.22600557e-01]
    CPU time for DIIS                                                    0.00 sec, wall time      0.00 sec, GPU time      0.67 ms
    CPU time for eig                                                     0.00 sec, wall time      0.00 sec, GPU time      4.08 ms
  HOMO = -0.27423784674688  LUMO = -0.0216188841992876
221184 grids on Device 0
215808 grids on Device 1
0 - 221184 grids are calculated on Device 0.
mem_info: unallocated=31272.06 MB, used=84.11 MB, free=284.30 MB, free_blocks=38
33089.241088 MB memory is available on Device 0, block_size None
221184 - 436992 grids are calculated on Device 1.
mem_info: unallocated=31282.06 MB, used=49.98 MB, free=248.44 MB, free_blocks=12
33062.127616 MB memory is available on Device 1, block_size None
    CPU time for eval rho on Device 0                                    0.02 sec, wall time      0.01 sec, GPU time     14.38 ms
    CPU time for eval rho on Device 1                                    0.02 sec, wall time      0.01 sec, GPU time     15.19 ms
    CPU time for eval vxc on Device 0                                    0.01 sec, wall time      0.00 sec, GPU time      1.75 ms
0 - 221184 grids are calculated on Device 0.
mem_info: unallocated=31208.06 MB, used=102.34 MB, free=266.07 MB, free_blocks=37
33003.023872 MB memory is available on Device 0, block_size None
    CPU time for eval vxc on Device 1                                    0.01 sec, wall time      0.00 sec, GPU time      0.89 ms
221184 - 436992 grids are calculated on Device 1.
mem_info: unallocated=31218.06 MB, used=68.33 MB, free=230.09 MB, free_blocks=14
32975.77728 MB memory is available on Device 1, block_size None
    CPU time for eval integration on 0                                   0.01 sec, wall time      0.01 sec, GPU time     14.15 ms
    CPU time for eval integration on 1                                   0.01 sec, wall time      0.01 sec, GPU time     18.48 ms
    CPU time for nr_rks                                                  0.06 sec, wall time      0.04 sec, GPU time     36.41 ms
nelec by numeric integration = 61.99999969337692
    CPU time for vxc                                                     0.06 sec, wall time      0.04 sec, GPU time     36.48 ms
30.227 GB memory available on Device 0, block size = 256
33.076 GB memory available on Device 1, block size = 256
    CPU time for vj and vk on Device 1                                   0.00 sec, wall time      0.00 sec, GPU time      3.01 ms
    CPU time for vj and vk on Device 0                                   0.00 sec, wall time      0.00 sec, GPU time      3.14 ms
    CPU time for vj and vk                                               0.01 sec, wall time      0.00 sec, GPU time      4.51 ms
    CPU time for veff                                                    0.01 sec, wall time      0.01 sec, GPU time      5.01 ms
    CPU time for veff                                                    0.07 sec, wall time      0.04 sec, GPU time     41.93 ms
E1 = -1222.576922771018  Ecoul = 541.2926892922534  Exc = -52.29929922179204
    CPU time for cycle=9                                                 0.07 sec, wall time      0.05 sec, GPU time     47.22 ms
cycle= 9 E= -363.102262904913  delta_E= -1.33e-08  |g|= 7.8e-05  |ddm|= 0.000317
diis-c [-4.41319339e-10  6.52881804e-01 -4.34152069e-05 -2.40736553e-04
 -1.51910778e-03  1.15618317e-04  1.07837804e-02  5.36456257e-02
  2.84376431e-01]
    CPU time for DIIS                                                    0.00 sec, wall time      0.00 sec, GPU time      0.68 ms
    CPU time for eig                                                     0.00 sec, wall time      0.00 sec, GPU time      4.08 ms
  HOMO = -0.274242651326931  LUMO = -0.0216235040316101
221184 grids on Device 0
215808 grids on Device 1
0 - 221184 grids are calculated on Device 0.
mem_info: unallocated=31272.06 MB, used=84.11 MB, free=284.30 MB, free_blocks=37
33089.241088 MB memory is available on Device 0, block_size None
221184 - 436992 grids are calculated on Device 1.
mem_info: unallocated=31282.06 MB, used=49.98 MB, free=248.44 MB, free_blocks=12
33062.127616 MB memory is available on Device 1, block_size None
    CPU time for eval rho on Device 0                                    0.02 sec, wall time      0.01 sec, GPU time     14.03 ms
    CPU time for eval rho on Device 1                                    0.02 sec, wall time      0.01 sec, GPU time     15.12 ms
    CPU time for eval vxc on Device 0                                    0.01 sec, wall time      0.00 sec, GPU time      1.94 ms
0 - 221184 grids are calculated on Device 0.
mem_info: unallocated=31208.06 MB, used=102.34 MB, free=266.07 MB, free_blocks=36
33003.023872 MB memory is available on Device 0, block_size None
    CPU time for eval vxc on Device 1                                    0.01 sec, wall time      0.00 sec, GPU time      0.88 ms
221184 - 436992 grids are calculated on Device 1.
mem_info: unallocated=31218.06 MB, used=68.33 MB, free=230.09 MB, free_blocks=14
32975.77728 MB memory is available on Device 1, block_size None
    CPU time for eval integration on 0                                   0.01 sec, wall time      0.01 sec, GPU time     14.33 ms
    CPU time for eval integration on 1                                   0.01 sec, wall time      0.01 sec, GPU time     18.11 ms
    CPU time for nr_rks                                                  0.06 sec, wall time      0.04 sec, GPU time     35.88 ms
nelec by numeric integration = 61.99999969335836
    CPU time for vxc                                                     0.06 sec, wall time      0.04 sec, GPU time     35.96 ms
30.227 GB memory available on Device 0, block size = 256
33.076 GB memory available on Device 1, block size = 256
    CPU time for vj and vk on Device 1                                   0.00 sec, wall time      0.00 sec, GPU time      2.89 ms
    CPU time for vj and vk on Device 0                                   0.00 sec, wall time      0.00 sec, GPU time      3.08 ms
    CPU time for vj and vk                                               0.01 sec, wall time      0.00 sec, GPU time      4.41 ms
    CPU time for veff                                                    0.01 sec, wall time      0.00 sec, GPU time      4.84 ms
    CPU time for veff                                                    0.07 sec, wall time      0.04 sec, GPU time     41.21 ms
E1 = -1222.5770116585086  Ecoul = 541.2927843018542  Exc = -52.29930534532561
    CPU time for cycle=10                                                0.07 sec, wall time      0.05 sec, GPU time     46.35 ms
cycle= 10 E= -363.102262906336  delta_E= -1.42e-09  |g|= 1.91e-05  |ddm|= 8.78e-05
diis-c [-1.34665293e-10  1.82084662e-01  8.17928302e-01 -1.77950491e-04
 -8.80595274e-04 -2.22445769e-03 -4.81348889e-03 -9.79361708e-03
  1.78771448e-02]
    CPU time for DIIS                                                    0.00 sec, wall time      0.00 sec, GPU time      0.68 ms
    CPU time for eig                                                     0.00 sec, wall time      0.00 sec, GPU time      4.08 ms
  HOMO = -0.274241741931234  LUMO = -0.0216226644144575
221184 grids on Device 0
215808 grids on Device 1
0 - 221184 grids are calculated on Device 0.
mem_info: unallocated=31272.06 MB, used=84.11 MB, free=284.30 MB, free_blocks=37
33089.241088 MB memory is available on Device 0, block_size None
221184 - 436992 grids are calculated on Device 1.
mem_info: unallocated=31282.06 MB, used=49.98 MB, free=248.44 MB, free_blocks=12
33062.127616 MB memory is available on Device 1, block_size None
    CPU time for eval rho on Device 0                                    0.02 sec, wall time      0.01 sec, GPU time     14.33 ms
    CPU time for eval rho on Device 1                                    0.02 sec, wall time      0.01 sec, GPU time     15.45 ms
    CPU time for eval vxc on Device 0                                    0.01 sec, wall time      0.00 sec, GPU time      2.01 ms
0 - 221184 grids are calculated on Device 0.
mem_info: unallocated=31208.06 MB, used=102.34 MB, free=266.07 MB, free_blocks=36
33003.023872 MB memory is available on Device 0, block_size None
    CPU time for eval vxc on Device 1                                    0.01 sec, wall time      0.00 sec, GPU time      0.88 ms
221184 - 436992 grids are calculated on Device 1.
mem_info: unallocated=31218.06 MB, used=68.33 MB, free=230.09 MB, free_blocks=14
32975.77728 MB memory is available on Device 1, block_size None
    CPU time for eval integration on 0                                   0.01 sec, wall time      0.01 sec, GPU time     14.27 ms
    CPU time for eval integration on 1                                   0.01 sec, wall time      0.01 sec, GPU time     18.05 ms
    CPU time for nr_rks                                                  0.06 sec, wall time      0.04 sec, GPU time     36.18 ms
nelec by numeric integration = 61.99999969335867
    CPU time for vxc                                                     0.06 sec, wall time      0.04 sec, GPU time     36.25 ms
33.076 GB memory available on Device 1, block size = 256
30.227 GB memory available on Device 0, block size = 256
    CPU time for vj and vk on Device 1                                   0.00 sec, wall time      0.00 sec, GPU time      2.95 ms
    CPU time for vj and vk on Device 0                                   0.00 sec, wall time      0.00 sec, GPU time      3.41 ms
    CPU time for vj and vk                                               0.01 sec, wall time      0.00 sec, GPU time      4.46 ms
    CPU time for veff                                                    0.01 sec, wall time      0.00 sec, GPU time      4.75 ms
    CPU time for veff                                                    0.07 sec, wall time      0.04 sec, GPU time     41.42 ms
E1 = -1222.5769862701118  Ecoul = 541.292761526736  Exc = -52.29930795863514
    CPU time for cycle=11                                                0.07 sec, wall time      0.05 sec, GPU time     46.56 ms
cycle= 11 E= -363.102262906367  delta_E= -3.1e-11  |g|= 1.53e-05  |ddm|= 3.14e-05
diis-c [-4.53242252e-12  7.87950652e-02  4.03580906e-01  5.04990041e-01
 -7.73608595e-05 -1.29446826e-04 -1.06028450e-05 -4.90832472e-05
  1.29004819e-02]
    CPU time for DIIS                                                    0.00 sec, wall time      0.00 sec, GPU time      1.18 ms
    CPU time for eig                                                     0.00 sec, wall time      0.00 sec, GPU time      4.07 ms
  HOMO = -0.274241490792417  LUMO = -0.0216224012845274
221184 grids on Device 0
215808 grids on Device 1
0 - 221184 grids are calculated on Device 0.
221184 - 436992 grids are calculated on Device 1.
mem_info: unallocated=31272.06 MB, used=84.11 MB, free=284.30 MB, free_blocks=38
mem_info: unallocated=31282.06 MB, used=49.98 MB, free=248.44 MB, free_blocks=12
33089.241088 MB memory is available on Device 0, block_size None
33062.127616 MB memory is available on Device 1, block_size None
    CPU time for eval rho on Device 0                                    0.02 sec, wall time      0.01 sec, GPU time     14.27 ms
    CPU time for eval rho on Device 1                                    0.02 sec, wall time      0.01 sec, GPU time     15.06 ms
    CPU time for eval vxc on Device 0                                    0.01 sec, wall time      0.00 sec, GPU time      1.68 ms
0 - 221184 grids are calculated on Device 0.
mem_info: unallocated=31208.06 MB, used=102.34 MB, free=266.07 MB, free_blocks=37
33003.023872 MB memory is available on Device 0, block_size None
    CPU time for eval vxc on Device 1                                    0.01 sec, wall time      0.00 sec, GPU time      0.89 ms
221184 - 436992 grids are calculated on Device 1.
mem_info: unallocated=31218.06 MB, used=68.33 MB, free=230.09 MB, free_blocks=14
32975.77728 MB memory is available on Device 1, block_size None
    CPU time for eval integration on 0                                   0.01 sec, wall time      0.01 sec, GPU time     14.34 ms
    CPU time for eval integration on 1                                   0.01 sec, wall time      0.01 sec, GPU time     18.50 ms
    CPU time for nr_rks                                                  0.06 sec, wall time      0.04 sec, GPU time     36.24 ms
nelec by numeric integration = 61.99999969336005
    CPU time for vxc                                                     0.06 sec, wall time      0.04 sec, GPU time     36.32 ms
33.076 GB memory available on Device 1, block size = 256
30.227 GB memory available on Device 0, block size = 256
    CPU time for vj and vk on Device 1                                   0.00 sec, wall time      0.00 sec, GPU time      2.99 ms
    CPU time for vj and vk on Device 0                                   0.00 sec, wall time      0.00 sec, GPU time      3.43 ms
    CPU time for vj and vk                                               0.01 sec, wall time      0.00 sec, GPU time      4.45 ms
    CPU time for veff                                                    0.01 sec, wall time      0.00 sec, GPU time      4.74 ms
    CPU time for veff                                                    0.07 sec, wall time      0.04 sec, GPU time     41.47 ms
E1 = -1222.5769795131814  Ecoul = 541.2927517692478  Exc = -52.29930495813297
    CPU time for cycle=12                                                0.07 sec, wall time      0.05 sec, GPU time     47.11 ms
cycle= 12 E= -363.102262906423  delta_E= -5.56e-11  |g|= 2.17e-06  |ddm|= 1.57e-05
    CPU time for SCF                                                     2.39 sec, wall time      2.79 sec, GPU time   2789.14 ms
converged SCF energy = -363.102262906423


******** <class 'gpu4pyscf.df.grad.rks.Gradients'> for <class 'gpu4pyscf.df.df_jk.DFRKS'> ********
unit = Eh/Bohr
max_memory 4000 MB (current use 1926 MB)
Number of shells for each [l, nctr] group
    [0 1] : 25
    [0 3] : 7
    [0 5] : 9
    [1 1] : 16
    [1 3] : 9
    [2 1] : 9
    CPU time for Initialize q_cond                                       0.00 sec, wall time      0.00 sec, GPU time      0.87 ms
    CPU time for Get AO pairing                                          0.00 sec, wall time      0.00 sec, GPU time      0.42 ms
    CPU time for AO indices                                              0.00 sec, wall time      0.00 sec, GPU time      0.12 ms
    CPU time for Initialize GPU cache                                    0.00 sec, wall time      0.00 sec, GPU time      1.11 ms
    CPU time for gradients of h1e                                        0.46 sec, wall time      0.03 sec, GPU time     33.56 ms
215808 grids on Device 1
221184 grids on Device 0
0 - 221184 grids are calculated on Device 0.
mem_info: unallocated=31272.06 MB, used=41.58 MB, free=326.83 MB, free_blocks=33
33133.835264 MB memory is available on Device 0, block_size None
221184 - 436992 grids are calculated on Device 1.
mem_info: unallocated=31282.06 MB, used=16.49 MB, free=281.92 MB, free_blocks=15
33097.239552 MB memory is available on Device 1, block_size None
    CPU time for gradient of vxc                                         0.17 sec, wall time      0.17 sec, GPU time    172.00 ms
    CPU time for gradient of vxc                                         0.18 sec, wall time      0.17 sec, GPU time    175.16 ms
    CPU time for grad vxc                                                0.18 sec, wall time      0.18 sec, GPU time    176.23 ms
    CPU time for vxc total                                               0.18 sec, wall time      0.18 sec, GPU time    176.43 ms
Number of shells for each [l, nprim] group
    [0 5] : 9
    [0 3] : 7
    [0 1] : 25
    [1 3] : 9
    [1 1] : 16
    [2 1] : 9
Number of shells for each [l, nprim] group
    [0 5] : 9
    [0 3] : 7
    [0 1] : 88
    [1 3] : 9
    [1 1] : 77
    [2 3] : 1
    [2 2] : 8
    [2 1] : 49
    [3 2] : 8
    [3 1] : 2
    [4 1] : 9
dm_factor shape (170, 31)
sp_batches = 1, ksh_batches = 11
32.791 GB free memory. nao_pair=13949 naux=945 batch_size=945 blksize=945
    CPU time for contract dm                                             0.04 sec, wall time      0.52 sec, GPU time    519.16 ms
int2c2e_kernel, nimgs = 1
int2c2e_kernel, nimgs = 1
    CPU time for contract int2c2e_ip1                                    0.03 sec, wall time      0.09 sec, GPU time     91.77 ms
    CPU time for contract int3c2e_ejk_ip1                                0.29 sec, wall time      0.29 sec, GPU time    289.08 ms
    CPU time for gradients of veff                                       0.54 sec, wall time      1.09 sec, GPU time   1085.75 ms
Computing Gradients of NR-HF Coulomb repulsion
    CPU time for gradients of 2e part                                    0.54 sec, wall time      1.09 sec, GPU time   1085.81 ms
    CPU time for gradients of electronic part                            1.00 sec, wall time      1.12 sec, GPU time   1120.03 ms
    CPU time for SCF gradients                                           1.00 sec, wall time      1.12 sec, GPU time   1120.22 ms
--------------- DFRKS gradients ---------------
         x                y                z
0 C     0.0167238352    -0.0021833391     0.0029489951
1 H    -0.0080588134     0.0009581828    -0.0023540084
2 C     0.0087395677     0.0026344139    -0.0081015150
3 H    -0.0056181675    -0.0016050129     0.0057074108
4 C    -0.0046311091     0.0042985306    -0.0152874451
5 H     0.0029129479    -0.0026025947     0.0075875687
6 C    -0.0156728622     0.0026304804    -0.0036599254
7 H     0.0093746964    -0.0001934425     0.0016897951
8 C    -0.0100580704     0.0005697357     0.0064396649
9 C     0.0061494000    -0.0043574851     0.0139555139
10 H    -0.0014979738     0.0039762241    -0.0082407533
11 C     0.0019637081     0.0021553643    -0.0008662041
12 H    -0.0037225473    -0.0034015859    -0.0052178126
13 H     0.0043560915     0.0048131054     0.0004373695
14 C    -0.0099448236     0.0315553499    -0.0254660740
15 N     0.0089851020    -0.0392500565     0.0304290427
----------------------------------------------


******** <class 'gpu4pyscf.df.hessian.rks.Hessian'> for <class 'gpu4pyscf.df.df_jk.DFRKS'> ********
Max_memory 4000 MB (current use 1969 MB)
Partial Hessian with density fitting approximation
Memory available 28.1978629110381 GB
Psi4 predefined JKFIT basis set def2-svp-jkfit for HF
Default auxbasis def2-svp-jkfit is applied universally
num shells = 267, num cGTOs = 803
    CPU time for intermediate variables with int2c2e and int2c2e_ip1      0.33 sec, wall time      0.02 sec, GPU time     17.76 ms
Number of shells for each [l, nctr] group
    [0 1] : 25
    [0 3] : 7
    [0 5] : 9
    [1 1] : 16
    [1 3] : 9
    [2 1] : 9
Number of shells for each [l, nctr] group
    [0 1] : 88
    [0 3] : 7
    [0 5] : 9
    [1 1] : 77
    [1 3] : 9
    [2 1] : 49
    [2 2] : 8
    [2 3] : 1
    [3 1] : 2
    [3 2] : 8
    [4 1] : 9
    CPU time for Initialize q_cond                                       0.00 sec, wall time      0.00 sec, GPU time      1.35 ms
    CPU time for Get AO pairing                                          0.02 sec, wall time      0.00 sec, GPU time      0.28 ms
    CPU time for AO indices                                              0.00 sec, wall time      0.00 sec, GPU time      0.11 ms
    CPU time for Aux AO indices                                          0.00 sec, wall time      0.00 sec, GPU time      0.23 ms
    CPU time for Get AO pairs                                            0.00 sec, wall time      0.00 sec, GPU time      0.40 ms
    CPU time for Initialize GPU cache on Device 0                        0.00 sec, wall time      0.00 sec, GPU time      0.28 ms
    CPU time for Initialize GPU cache on Device 1                        0.00 sec, wall time      0.00 sec, GPU time      0.29 ms
    CPU time for int3c2e_vjk on Device 1                                 0.16 sec, wall time      0.07 sec, GPU time     69.74 ms
    CPU time for int3c2e_vjk on Device 0                                 0.22 sec, wall time      0.07 sec, GPU time     73.56 ms
    CPU time for intermediate variables with int3c2e                     0.57 sec, wall time      0.10 sec, GPU time    105.69 ms
    CPU time for Initialize GPU cache on Device 0                        0.00 sec, wall time      0.00 sec, GPU time      0.48 ms
    CPU time for Initialize GPU cache on Device 1                        0.00 sec, wall time      0.00 sec, GPU time      0.46 ms
    CPU time for int3c2e_ipip on Device 1                                1.44 sec, wall time      0.91 sec, GPU time    913.08 ms
    CPU time for int3c2e_ipip on Device 0                                1.67 sec, wall time      1.13 sec, GPU time   1133.66 ms
    CPU time for intermediate variables with int3c2e_ipip                1.67 sec, wall time      1.14 sec, GPU time   1134.69 ms
    CPU time for int3c2e_ip2_wjk on Device 1                             0.23 sec, wall time      0.19 sec, GPU time    194.57 ms
    CPU time for int3c2e_ip2_wjk on Device 0                             0.24 sec, wall time      0.20 sec, GPU time    200.54 ms
    CPU time for intermediate variables with int3c2e_ip2                 0.24 sec, wall time      0.20 sec, GPU time    203.65 ms
    CPU time for int3c2e_ip1_wjk on Device 1                             0.14 sec, wall time      0.09 sec, GPU time     89.47 ms
    CPU time for int3c2e_ip1_wjk on Device 0                             0.15 sec, wall time      0.10 sec, GPU time     95.60 ms
    CPU time for intermediate variables with int3c2e_ip1                 0.17 sec, wall time      0.11 sec, GPU time    114.30 ms
GPU Memory 28.1 GB available, 3371 aux AOs per block
    CPU time for contract int3c2e_ip1 with int2c_ip1                     0.08 sec, wall time      0.10 sec, GPU time     95.71 ms
    CPU time for contract int3c2e_ip1 with int3c2e_ip1                   0.09 sec, wall time      0.09 sec, GPU time     92.21 ms
    CPU time for intermediate variables with int2c_*                     0.54 sec, wall time      0.05 sec, GPU time     49.02 ms
    CPU time for contract int2c_*                                        0.02 sec, wall time      0.02 sec, GPU time     52.24 ms
Number of shells for each [l, nctr] group
    [0 1] : 25
    [0 3] : 7
    [0 5] : 9
    [1 1] : 16
    [1 3] : 9
    [2 1] : 9
    CPU time for Initialize q_cond                                       0.00 sec, wall time      0.00 sec, GPU time      0.92 ms
    CPU time for Get AO pairing                                          0.00 sec, wall time      0.00 sec, GPU time      0.43 ms
    CPU time for AO indices                                              0.00 sec, wall time      0.00 sec, GPU time      0.13 ms
    CPU time for Initialize GPU cache                                    0.00 sec, wall time      0.00 sec, GPU time      0.88 ms
    CPU time for hess_nuc_elec                                           0.32 sec, wall time      0.18 sec, GPU time    183.69 ms
    CPU time for get_hcore                                               0.17 sec, wall time      0.01 sec, GPU time      5.70 ms
    CPU time for hcore generate                                          0.52 sec, wall time      0.22 sec, GPU time    190.36 ms
    CPU time for hcore contribution                                      0.21 sec, wall time      0.05 sec, GPU time     54.69 ms
    CPU time for RHF partial hessian                                     4.45 sec, wall time      2.11 sec, GPU time   2111.05 ms
    CPU time for computing ej, ek                                        4.45 sec, wall time      2.11 sec, GPU time   2111.49 ms
0 - 436992 grids are calculated on Device 0.
mem_info: unallocated=28016.06 MB, used=36.58 MB, free=417.99 MB, free_blocks=24
29815.263744 MB memory is available on Device 0, block_size None
0 - 221184 grids are calculated on Device 0.
mem_info: unallocated=27952.06 MB, used=134.93 MB, free=319.64 MB, free_blocks=23
29645.025792 MB memory is available on Device 0, block_size None
221184 - 436992 grids are calculated on Device 1.
mem_info: unallocated=28728.06 MB, used=109.58 MB, free=109.84 MB, free_blocks=18
30238.728704 MB memory is available on Device 1, block_size None
    CPU time for vxc_deriv2 on Device 1                                  2.84 sec, wall time      2.44 sec, GPU time   2438.06 ms
    CPU time for vxc_deriv2 on Device 0                                  2.84 sec, wall time      2.44 sec, GPU time   2441.96 ms
    CPU time for RKS partial hessian                                     7.58 sec, wall time      4.84 sec, GPU time   4837.39 ms
    CPU time for hess elec                                               7.58 sec, wall time      4.84 sec, GPU time   4837.42 ms
Generate JK for RHF partial hessian
GPU memory 28.2 GB available
Psi4 predefined JKFIT basis set def2-svp-jkfit for HF
Default auxbasis def2-svp-jkfit is applied universally
num shells = 267, num cGTOs = 803
GPU Memory 28.2 GB available, 9728 aux AOs per block
Number of shells for each [l, nctr] group
    [0 1] : 25
    [0 3] : 7
    [0 5] : 9
    [1 1] : 16
    [1 3] : 9
    [2 1] : 9
Number of shells for each [l, nctr] group
    [0 1] : 88
    [0 3] : 7
    [0 5] : 9
    [1 1] : 77
    [1 3] : 9
    [2 1] : 49
    [2 2] : 8
    [2 3] : 1
    [3 1] : 2
    [3 2] : 8
    [4 1] : 9
    CPU time for Initialize q_cond                                       0.00 sec, wall time      0.00 sec, GPU time      1.31 ms
    CPU time for Get AO pairing                                          0.00 sec, wall time      0.00 sec, GPU time      0.27 ms
    CPU time for AO indices                                              0.00 sec, wall time      0.00 sec, GPU time      0.11 ms
    CPU time for Aux AO indices                                          0.00 sec, wall time      0.00 sec, GPU time      0.23 ms
    CPU time for Get AO pairs                                            0.03 sec, wall time      0.00 sec, GPU time      0.40 ms
    CPU time for Initialize GPU cache on Device 0                        0.00 sec, wall time      0.00 sec, GPU time      0.27 ms
    CPU time for Fock matrix due to int3c2e                              0.56 sec, wall time      0.12 sec, GPU time    127.16 ms
    CPU time for Initialize GPU cache on Device 0                        0.00 sec, wall time      0.00 sec, GPU time      0.46 ms
    CPU time for Initialize GPU cache on Device 1                        0.00 sec, wall time      0.00 sec, GPU time      0.34 ms
    CPU time for int3c2e_ip2_vjk on Device 0                             0.15 sec, wall time      0.10 sec, GPU time     98.71 ms
    CPU time for int3c2e_ip2_vjk on Device 1                             0.15 sec, wall time      0.10 sec, GPU time     99.89 ms
    CPU time for Fock matrix due to int3c2e_ip2                          0.16 sec, wall time      0.11 sec, GPU time    102.20 ms
GPU Memory 28.1 GB available, 10080 AOs per block
    CPU time for Fock matrix due to int2c2e_ip1                          0.20 sec, wall time      0.01 sec, GPU time     26.83 ms
    CPU time for int3c2e_ip1_vjk on Device 1                             0.32 sec, wall time      0.28 sec, GPU time    278.11 ms
    CPU time for int3c2e_ip1_vjk on Device 0                             0.34 sec, wall time      0.30 sec, GPU time    297.03 ms
    CPU time for Fock matrix due to int3c2e_ip1                          0.37 sec, wall time      0.32 sec, GPU time    300.42 ms
Number of shells for each [l, nctr] group
    [0 1] : 25
    [0 3] : 7
    [0 5] : 9
    [1 1] : 16
    [1 3] : 9
    [2 1] : 9
    CPU time for Initialize q_cond                                       0.00 sec, wall time      0.00 sec, GPU time      1.10 ms
    CPU time for Get AO pairing                                          0.02 sec, wall time      0.00 sec, GPU time      0.44 ms
    CPU time for AO indices                                              0.00 sec, wall time      0.00 sec, GPU time      0.12 ms
    CPU time for Aux AO indices                                          0.00 sec, wall time      0.00 sec, GPU time      0.06 ms
    CPU time for Get AO pairs                                            0.00 sec, wall time      0.00 sec, GPU time      0.61 ms
    CPU time for Initialize GPU cache on Device 0                        0.00 sec, wall time      0.00 sec, GPU time      0.45 ms
221184 - 436992 grids are calculated on Device 1.
mem_info: unallocated=28538.06 MB, used=101.82 MB, free=300.72 MB, free_blocks=22
30239.652352 MB memory is available on Device 1, block_size None
0 - 221184 grids are calculated on Device 0.
mem_info: unallocated=31022.06 MB, used=126.94 MB, free=5.15 MB, free_blocks=11
32534.393856 MB memory is available on Device 0, block_size None
    CPU time for vxc_deriv1 on Device 1                                  1.38 sec, wall time      1.10 sec, GPU time   1096.47 ms
    CPU time for vxc_deriv1 on Device 0                                  1.39 sec, wall time      1.11 sec, GPU time   1108.65 ms
    CPU time for making H1                                               3.02 sec, wall time      1.71 sec, GPU time   1714.86 ms
GPU memory 28.2 GB available
4864 atoms in each block CPHF equation
Solving CPHF equation for atoms [0:16]
Secondary grids defined for CPHF in Hessian
atom C rad-grids = 50, ang-grids = [  6   6   6   6   6   6   6   6   6   6   6   6   6   6   6  38  38  38
  38  38  38  86  86  86  86 194 194 194 194 194 194 194 194 194 194 194
 194 194  86  86  86  86  86  86  86  86  86  86  86  86]
atom H rad-grids = 50, ang-grids = [  6   6   6   6   6   6   6   6   6   6   6   6   6   6   6   6   6  38
  38  38  38  38  86  86  86  86  86 194 194 194 194 194 194 194 194 194
 194 194 194 194 194 194  86  86  86  86  86  86  86  86]
atom N rad-grids = 50, ang-grids = [  6   6   6   6   6   6   6   6   6   6   6   6   6   6   6  38  38  38
  38  38  38  86  86  86  86 194 194 194 194 194 194 194 194 194 194 194
 194 194  86  86  86  86  86  86  86  86  86  86  86  86]
    CPU time for generating atomic grids                                 0.00 sec, wall time      0.00 sec, GPU time      1.96 ms
Padding 168 grids
    CPU time for sorting grids                                           0.00 sec, wall time      0.00 sec, GPU time      0.60 ms
tot grids = 68352
0 - 68352 grids are calculated on Device 0.
mem_info: unallocated=31174.06 MB, used=45.25 MB, free=5.46 MB, free_blocks=14
32694.099456 MB memory is available on Device 0, block_size None
    CPU time for eval rho in fxc                                         0.02 sec, wall time      0.03 sec, GPU time     25.32 ms
    CPU time for eval fxc                                                0.00 sec, wall time      0.00 sec, GPU time      0.93 ms
36864 grids on Device 0
0 - 36864 grids are calculated on Device 0.
mem_info: unallocated=31116.06 MB, used=84.34 MB, free=14.34 MB, free_blocks=22
32642.591232 MB memory is available on Device 0, block_size None
31488 grids on Device 1
36864 - 68352 grids are calculated on Device 1.
mem_info: unallocated=28602.06 MB, used=25.64 MB, free=376.90 MB, free_blocks=24
30386.64448 MB memory is available on Device 1, block_size None
    CPU time for vxc on Device 1                                         0.18 sec, wall time      0.11 sec, GPU time    146.60 ms
    CPU time for vxc on Device 0                                         0.22 sec, wall time      0.13 sec, GPU time    165.40 ms
    CPU time for nr_rks_fxc                                              0.29 sec, wall time      0.17 sec, GPU time    166.70 ms
Build CDERI ...
    CPU time for 2c2e                                                    0.00 sec, wall time      0.00 sec, GPU time      2.19 ms
Number of shells for each [l, nctr] group
    [0 1] : 25
    [0 3] : 7
    [0 5] : 9
    [1 1] : 16
    [1 3] : 9
    [2 1] : 9
Number of shells for each [l, nctr] group
    [0 1] : 88
    [0 3] : 7
    [0 5] : 9
    [1 1] : 77
    [1 3] : 9
    [2 1] : 49
    [2 2] : 8
    [2 3] : 1
    [3 1] : 2
    [3 2] : 8
    [4 1] : 9
    CPU time for Initialize q_cond                                       0.04 sec, wall time      0.00 sec, GPU time      1.50 ms
    CPU time for Get AO pairing                                          0.00 sec, wall time      0.00 sec, GPU time      0.28 ms
    CPU time for AO indices                                              0.00 sec, wall time      0.00 sec, GPU time      0.11 ms
    CPU time for Aux AO indices                                          0.00 sec, wall time      0.00 sec, GPU time      0.26 ms
[...]
      12   H                 0.07  0.05 -0.07   -0.04  0.03  0.05    0.05 -0.05 -0.06
      13   H                 0.08  0.03 -0.09    0.06  0.00  0.00   -0.19 -0.02  0.07
      14   C                -0.12 -0.00  0.09    0.02  0.01 -0.01   -0.01 -0.03 -0.00
      15   N                 0.05 -0.04 -0.00   -0.01  0.01 -0.01    0.01 -0.01  0.02
Mode                                12                  13                  14
Irrep
Freq [cm^-1]                      808.4725            824.8700            883.3820
Reduced mass [au]                   1.2618              3.6146              1.4850
Force const [Dyne/A]                0.4859              1.4490              0.6828
Char temp [K]                    1163.2119           1186.8043           1270.9900
Normal mode                   x     y     z       x     y     z       x     y     z
       0   C                -0.00 -0.06 -0.02   -0.11  0.01 -0.01    0.03 -0.01 -0.00
       1   H                 0.00  0.41  0.15   -0.14  0.05  0.15    0.04  0.08 -0.02
       2   C                 0.00 -0.01 -0.00    0.04 -0.02 -0.05   -0.01 -0.07 -0.02
       3   H                 0.00  0.04  0.01    0.06  0.16  0.03   -0.01  0.40  0.13
       4   C                 0.00  0.06  0.02    0.02 -0.03  0.08   -0.00 -0.02 -0.02
       5   H                -0.01 -0.37 -0.13   -0.07  0.09  0.15    0.01  0.12  0.03
       6   C                 0.00  0.07  0.03    0.01 -0.02  0.04    0.00  0.07  0.02
       7   H                -0.01 -0.45 -0.16    0.02 -0.09 -0.02   -0.01 -0.38 -0.13
       8   C                -0.00  0.00 -0.00    0.01  0.05  0.02   -0.01 -0.02 -0.01
       9   C                -0.00 -0.07 -0.03   -0.08  0.02 -0.03    0.03  0.07  0.04
      10   H                 0.01  0.42  0.14   -0.07 -0.11 -0.08    0.03 -0.38 -0.11
      11   C                 0.00 -0.00 -0.00    0.14 -0.03 -0.06   -0.06 -0.05 -0.02
      12   H                 0.00  0.00 -0.01    0.17  0.01 -0.12   -0.19  0.12  0.15
      13   H                -0.01  0.00 -0.01    0.10 -0.00 -0.10    0.23 -0.04  0.02
      14   C                -0.00 -0.00  0.00   -0.06  0.01  0.02    0.03  0.03  0.02
      15   N                 0.00  0.00  0.00    0.02  0.01 -0.02   -0.01  0.00 -0.01
Mode                                15                  16                  17
Irrep
Freq [cm^-1]                      952.9738            957.8869            960.6964
Reduced mass [au]                   2.6853              1.6290              2.1336
Force const [Dyne/A]                1.4368              0.8806              1.1602
Char temp [K]                    1371.1172           1378.1860           1382.2282
Normal mode                   x     y     z       x     y     z       x     y     z
       0   C                -0.01  0.00 -0.01    0.01 -0.07 -0.02    0.01  0.03  0.01
       1   H                -0.01  0.03 -0.01    0.02  0.38  0.12    0.01 -0.12 -0.06
       2   C                -0.01  0.02 -0.00    0.00  0.01 -0.00    0.00  0.03  0.01
       3   H                -0.05 -0.09 -0.09    0.00 -0.05 -0.02    0.01 -0.18 -0.06
       4   C                 0.00 -0.02  0.05    0.00  0.07  0.02    0.00 -0.04 -0.03
       5   H                -0.06  0.01  0.08   -0.00 -0.34 -0.13    0.02  0.27  0.08
       6   C                 0.02 -0.03  0.01   -0.01 -0.08 -0.03   -0.01  0.01 -0.00
       7   H                 0.03  0.08  0.05    0.00  0.37  0.13   -0.01 -0.07 -0.03
       8   C                 0.01  0.07 -0.01   -0.01  0.04  0.02   -0.01  0.06  0.03
       9   C                 0.00 -0.03  0.00    0.01  0.04  0.02    0.01 -0.07 -0.01
      10   H                -0.00  0.10  0.05    0.01 -0.24 -0.08    0.04  0.30  0.11
      11   C                -0.08  0.05 -0.15    0.00 -0.08 -0.00    0.01 -0.14  0.00
      12   H                -0.20  0.35 -0.03   -0.09  0.03  0.12   -0.13  0.03  0.20
      13   H                 0.29  0.08 -0.11    0.15 -0.13  0.09    0.22 -0.22  0.16
      14   C                 0.06 -0.01  0.05   -0.01  0.04  0.02   -0.02  0.07  0.02
      15   N                 0.01 -0.07  0.05   -0.01  0.03 -0.03   -0.01  0.05 -0.05
Mode                                18                  19                  20
Irrep
Freq [cm^-1]                      988.4160           1011.2502           1041.1123
Reduced mass [au]                   1.4215              5.5681              1.9747
Force const [Dyne/A]                0.8182              3.3549              1.2611
Char temp [K]                    1422.1106           1454.9639           1497.9288
Normal mode                   x     y     z       x     y     z       x     y     z
       0   C                -0.00 -0.08 -0.03    0.04 -0.01  0.02    0.09 -0.02  0.06
       1   H                 0.01  0.42  0.15    0.02 -0.03  0.07    0.02 -0.12  0.35
       2   C                 0.00  0.09  0.03   -0.09 -0.03  0.09    0.08  0.03 -0.08
       3   H                -0.01 -0.47 -0.16   -0.09 -0.02  0.09    0.09  0.03 -0.09
       4   C                -0.00 -0.07 -0.03   -0.02  0.02 -0.04   -0.07  0.03 -0.08
       5   H                 0.00  0.36  0.13   -0.08  0.01 -0.02   -0.35  0.01 -0.02
       6   C                 0.00  0.03  0.01    0.15 -0.02  0.05   -0.02 -0.01  0.04
       7   H                -0.00 -0.16 -0.06    0.14 -0.04  0.12   -0.09 -0.10  0.28
       8   C                 0.00 -0.02 -0.00   -0.01  0.00  0.02   -0.00  0.00  0.00
       9   C                -0.00  0.04  0.01   -0.06  0.05 -0.14   -0.04 -0.01  0.02
      10   H                -0.02 -0.21 -0.08   -0.13  0.05 -0.13   -0.28 -0.02  0.09
      11   C                 0.00  0.02  0.01    0.00 -0.02 -0.00    0.00  0.01 -0.01
      12   H                 0.03 -0.02 -0.03   -0.01  0.02  0.00    0.00  0.02 -0.02
      13   H                -0.05  0.04 -0.02    0.03 -0.03  0.02    0.02  0.01 -0.02
      14   C                 0.00 -0.01 -0.01   -0.00  0.01  0.00    0.00 -0.00  0.00
      15   N                 0.00 -0.00  0.01   -0.00  0.00 -0.01    0.00 -0.01  0.00
Mode                                21                  22                  23
Irrep
Freq [cm^-1]                     1083.8250           1145.8350           1166.6511
Reduced mass [au]                   1.4040              1.0649              1.1035
Force const [Dyne/A]                0.9717              0.8238              0.8849
Char temp [K]                    1559.3828           1648.6014           1678.5512
Normal mode                   x     y     z       x     y     z       x     y     z
       0   C                -0.06  0.00 -0.00   -0.01 -0.01  0.02   -0.00  0.01 -0.04
       1   H                -0.12 -0.07  0.21   -0.10 -0.13  0.37    0.11  0.15 -0.44
       2   C                 0.04 -0.01  0.04   -0.04  0.01 -0.03    0.01  0.00 -0.01
       3   H                 0.29 -0.10  0.26   -0.50  0.17 -0.46    0.06 -0.01  0.03
       4   C                 0.00  0.02 -0.05    0.03  0.00 -0.00    0.04 -0.00  0.00
       5   H                 0.25  0.05 -0.12    0.48  0.04 -0.13    0.38  0.03 -0.09
       6   C                -0.08 -0.01  0.03    0.02 -0.00  0.00   -0.01 -0.01  0.04
       7   H                -0.18 -0.12  0.36   -0.03 -0.06  0.16   -0.12 -0.16  0.46
       8   C                 0.02 -0.01  0.03    0.01 -0.00  0.00    0.01  0.00 -0.01
       9   C                 0.03  0.02 -0.07   -0.01 -0.01  0.02   -0.04 -0.00  0.01
      10   H                 0.39  0.05 -0.18    0.09  0.00 -0.01   -0.49 -0.04  0.14
      11   C                -0.02  0.00 -0.02    0.00  0.00  0.00   -0.00 -0.00  0.00
      12   H                -0.02  0.08 -0.05    0.00 -0.01  0.00   -0.02 -0.02  0.03
      13   H                 0.04  0.01 -0.01   -0.01 -0.01  0.01    0.00  0.00  0.00
      14   C                 0.01 -0.00  0.00   -0.00 -0.00  0.00   -0.00  0.00 -0.00
      15   N                -0.00 -0.01  0.00    0.00  0.00 -0.00   -0.00  0.00 -0.00
Mode                                24                  25                  26
Irrep
Freq [cm^-1]                     1214.1532           1227.3758           1297.0446
Reduced mass [au]                   1.9809              1.1618              1.6100
Force const [Dyne/A]                1.7206              1.0312              1.5958
Char temp [K]                    1746.8961           1765.9205           1866.1584
Normal mode                   x     y     z       x     y     z       x     y     z
       0   C                 0.06  0.00 -0.01    0.02 -0.00  0.01    0.02 -0.02  0.05
       1   H                 0.10  0.05 -0.13    0.05  0.03 -0.07    0.12  0.10 -0.30
       2   C                 0.00 -0.00 -0.00   -0.01  0.00  0.00    0.01 -0.00  0.00
       3   H                -0.00  0.01 -0.01   -0.01 -0.00 -0.01   -0.12  0.04 -0.11
       4   C                -0.01  0.02 -0.06    0.01  0.01 -0.02    0.04  0.01 -0.02
       5   H                 0.22  0.04 -0.13   -0.00  0.01 -0.01   -0.20 -0.01  0.05
       6   C                -0.03 -0.01  0.02    0.01 -0.01  0.01    0.01  0.00  0.01
       7   H                 0.04  0.10 -0.26    0.00  0.01  0.05   -0.06 -0.10  0.28
       8   C                -0.09 -0.04  0.14   -0.06  0.04  0.03   -0.12 -0.00 -0.03
       9   C                -0.04 -0.01  0.02    0.00 -0.01  0.01   -0.03 -0.01  0.03
      10   H                 0.03  0.00  0.00    0.16  0.03 -0.02    0.43  0.02 -0.11
      11   C                 0.04 -0.02 -0.03    0.02 -0.01  0.02    0.06  0.04 -0.06
      12   H                 0.19  0.27 -0.38   -0.10 -0.31  0.34   -0.00 -0.03  0.07
      13   H                 0.12  0.06 -0.11    0.23  0.45 -0.58   -0.16 -0.18  0.21
      14   C                 0.02  0.01  0.01   -0.03 -0.04 -0.04   -0.01  0.00  0.02
      15   N                -0.00 -0.00  0.00    0.00  0.01  0.00    0.01 -0.01  0.00
Mode                                27                  28                  29
Irrep
Freq [cm^-1]                     1335.3283           1361.4590           1427.3938
Reduced mass [au]                   2.0987              3.1418              1.0986
Force const [Dyne/A]                2.2049              3.4312              1.3188
Char temp [K]                    1921.2402           1958.8363           2053.7019
Normal mode                   x     y     z       x     y     z       x     y     z
       0   C                 0.00 -0.01  0.03   -0.04 -0.03  0.09   -0.00  0.00 -0.00
       1   H                -0.02 -0.04  0.12    0.00  0.02 -0.07   -0.01 -0.01  0.02
       2   C                -0.07  0.02 -0.06   -0.06  0.02 -0.05   -0.00  0.00  0.00
       3   H                 0.18 -0.06  0.15   -0.02  0.01 -0.01   -0.00 -0.00  0.01
       4   C                 0.02  0.01 -0.02    0.10  0.00 -0.02    0.01 -0.00  0.00
       5   H                 0.22  0.02 -0.08   -0.15 -0.01  0.05   -0.01 -0.00  0.01
       6   C                -0.02 -0.04  0.11   -0.02 -0.02  0.06    0.00  0.00 -0.01
       7   H                 0.09  0.10 -0.28   -0.02 -0.01  0.04   -0.01  0.00  0.03
       8   C                -0.06 -0.00 -0.00   -0.05  0.03 -0.08   -0.00 -0.00 -0.00
       9   C                 0.08  0.01 -0.02    0.09  0.01 -0.03    0.01  0.00 -0.00
      10   H                -0.18 -0.02  0.06   -0.06 -0.00  0.01   -0.02 -0.01  0.01
      11   C                 0.05  0.05 -0.08   -0.03 -0.05  0.08    0.05 -0.06  0.02
      12   H                -0.12 -0.15  0.28    0.18  0.15 -0.36   -0.20  0.60  0.24
      13   H                -0.13 -0.12  0.14    0.11  0.10 -0.10   -0.59  0.09 -0.29
      14   C                -0.02 -0.00  0.01    0.01  0.01 -0.00    0.01 -0.00 -0.01
      15   N                 0.00 -0.01  0.01   -0.00  0.01 -0.01   -0.00  0.00 -0.00
Mode                                30                  31                  32
Irrep
Freq [cm^-1]                     1469.1901           1514.8219           1640.8284
Reduced mass [au]                   2.5161              2.7208              6.5405
Force const [Dyne/A]                3.1999              3.6785             10.3749
Char temp [K]                    2113.8374           2179.4915           2360.7868
Normal mode                   x     y     z       x     y     z       x     y     z
       0   C                -0.07 -0.02  0.06   -0.00 -0.04  0.11   -0.05  0.02 -0.06
       1   H                -0.01  0.08 -0.22    0.10  0.09 -0.26   -0.08 -0.00  0.02
       2   C                 0.07 -0.02  0.06    0.05  0.02 -0.06    0.12 -0.04  0.10
       3   H                -0.27  0.09 -0.25    0.07  0.02 -0.06   -0.11  0.04 -0.12
       4   C                 0.05  0.03 -0.08   -0.11 -0.00  0.01   -0.11  0.01 -0.03
       5   H                -0.22  0.01 -0.01    0.26  0.03 -0.10    0.07  0.03 -0.08
       6   C                -0.08 -0.01  0.03    0.02 -0.03  0.07    0.04 -0.02  0.06
       7   H                -0.04  0.06 -0.16    0.11  0.07 -0.21    0.08  0.02 -0.05
       8   C                 0.08 -0.03  0.08    0.08  0.02 -0.07   -0.10  0.03 -0.08
       9   C                 0.02  0.02 -0.07   -0.08  0.01 -0.02    0.10 -0.01  0.01
      10   H                -0.15  0.02 -0.03    0.24  0.04 -0.12   -0.09 -0.02  0.07
      11   C                -0.01  0.02 -0.03   -0.02 -0.01  0.03    0.01 -0.01  0.01
      12   H                -0.09 -0.05  0.16   -0.02  0.04  0.01    0.04  0.02 -0.07
      13   H                -0.02 -0.01  0.01   -0.04  0.01 -0.01    0.00  0.00  0.00
      14   C                -0.00 -0.00 -0.00    0.00  0.00 -0.00   -0.00  0.00  0.00
      15   N                 0.00 -0.00  0.00   -0.00  0.00 -0.00    0.00  0.00 -0.00
Mode                                33                  34                  35
Irrep
Freq [cm^-1]                     1661.3275           2297.7211           3011.3442
Reduced mass [au]                   6.7261             12.5582              1.0590
Force const [Dyne/A]               10.9376             39.0636              5.6583
Char temp [K]                    2390.2804           3305.9091           4332.6538
Normal mode                   x     y     z       x     y     z       x     y     z
       0   C                -0.05 -0.04  0.11   -0.00  0.00 -0.00   -0.00  0.00 -0.00
       1   H                 0.00  0.04 -0.11    0.00  0.00 -0.00    0.00  0.00 -0.00
       2   C                 0.02  0.02 -0.05    0.00 -0.00  0.00    0.00 -0.00  0.00
       3   H                 0.06  0.01 -0.03    0.00  0.00 -0.00   -0.00 -0.00  0.00
       4   C                -0.09 -0.02  0.06    0.00  0.00 -0.00   -0.00  0.00 -0.00
       5   H                 0.10 -0.01  0.02    0.00 -0.00 -0.00    0.01 -0.01  0.02
       6   C                 0.05  0.04 -0.12    0.00 -0.00  0.00    0.00 -0.00  0.00
       7   H                -0.02 -0.05  0.14   -0.00 -0.00 -0.00   -0.01  0.00  0.00
       8   C                -0.05 -0.03  0.08   -0.00 -0.00  0.00   -0.00  0.00 -0.00
       9   C                 0.10  0.02 -0.06   -0.00  0.00  0.00   -0.00 -0.00 -0.00
      10   H                -0.14  0.00 -0.00    0.00  0.00 -0.01    0.00  0.00  0.00
      11   C                 0.01  0.00 -0.01    0.01 -0.02  0.02   -0.05  0.04  0.01
      12   H                 0.00 -0.01  0.01   -0.01 -0.02  0.00    0.53  0.10  0.30
      13   H                 0.02  0.00 -0.01    0.01 -0.01  0.01    0.07 -0.60 -0.43
      14   C                -0.00  0.00 -0.00   -0.04  0.18 -0.13   -0.00  0.00 -0.00
      15   N                 0.00 -0.00  0.00    0.03 -0.13  0.10    0.00 -0.00  0.00
Mode                                36                  37                  38
Irrep
Freq [cm^-1]                     3065.2920           3315.1915           3323.6370
Reduced mass [au]                   1.1055              1.0870              1.0904
Force const [Dyne/A]                6.1202              7.0390              7.0966
Char temp [K]                    4410.2728           4769.8224           4781.9737
Normal mode                   x     y     z       x     y     z       x     y     z
       0   C                -0.00 -0.00  0.00   -0.04  0.00 -0.01    0.03 -0.00  0.01
       1   H                -0.00  0.00  0.00    0.43 -0.04  0.10   -0.39  0.04 -0.09
       2   C                -0.00  0.00 -0.00    0.04  0.01 -0.04    0.02  0.01 -0.02
       3   H                -0.00 -0.00  0.00   -0.51 -0.17  0.50   -0.20 -0.06  0.20
       4   C                 0.00 -0.00  0.00    0.01 -0.01  0.02    0.01 -0.01  0.03
       5   H                -0.00  0.00 -0.00   -0.08  0.10 -0.28   -0.11  0.13 -0.37
       6   C                -0.00  0.00 -0.00   -0.01  0.00 -0.00   -0.01  0.00 -0.00
       7   H                 0.01  0.00  0.00    0.14 -0.02  0.03    0.09 -0.01  0.02
       8   C                 0.00 -0.00  0.00   -0.00 -0.00  0.00    0.00 -0.00  0.00
       9   C                 0.00  0.00 -0.00    0.01 -0.01  0.02   -0.02  0.02 -0.05
      10   H                 0.00 -0.00  0.00   -0.07  0.08 -0.22    0.20 -0.22  0.63
      11   C                 0.05  0.05  0.06   -0.00  0.00 -0.00   -0.00 -0.00 -0.00
      12   H                -0.63 -0.11 -0.35    0.01  0.00  0.00    0.01  0.00  0.01
      13   H                 0.07 -0.49 -0.35    0.00 -0.00 -0.00   -0.00 -0.00 -0.00
      14   C                 0.00 -0.00  0.00    0.00  0.00 -0.00   -0.00  0.00 -0.00
      15   N                -0.00  0.00 -0.00    0.00 -0.00  0.00    0.00 -0.00  0.00
Mode                                39                  40                  41
Irrep
Freq [cm^-1]                     3326.1718           3338.3589           3353.9649
Reduced mass [au]                   1.0909              1.0979              1.0968
Force const [Dyne/A]                7.1107              7.2089              7.2696
Char temp [K]                    4785.6206           4803.1551           4825.6087
Normal mode                   x     y     z       x     y     z       x     y     z
       0   C                -0.01  0.00  0.00    0.06 -0.01  0.01    0.01 -0.00  0.00
       1   H                 0.10 -0.01  0.02   -0.70  0.07 -0.16   -0.09  0.01 -0.02
       2   C                 0.02  0.01 -0.02    0.02  0.01 -0.02    0.02  0.01 -0.02
       3   H                -0.22 -0.07  0.22   -0.20 -0.07  0.20   -0.23 -0.07  0.22
       4   C                -0.01  0.01 -0.03   -0.00 -0.00  0.00   -0.02  0.02 -0.06
       5   H                 0.10 -0.11  0.31   -0.00  0.00 -0.01    0.20 -0.24  0.66
       6   C                 0.07 -0.01  0.02    0.01 -0.00  0.00   -0.04  0.00 -0.01
       7   H                -0.77  0.08 -0.19   -0.13  0.01 -0.03    0.47 -0.05  0.11
       8   C                 0.00  0.00 -0.00   -0.00  0.00 -0.00    0.00 -0.00  0.00
       9   C                -0.01  0.01 -0.02    0.01 -0.02  0.04   -0.00  0.00 -0.01
      10   H                 0.07 -0.08  0.21   -0.15  0.17 -0.47    0.05 -0.05  0.16
      11   C                 0.00 -0.00  0.00    0.00  0.00  0.00    0.00 -0.00 -0.00
      12   H                -0.02 -0.00 -0.01   -0.00 -0.00 -0.00   -0.00 -0.00 -0.00
      13   H                -0.00  0.00  0.00    0.00 -0.00 -0.00   -0.00  0.01  0.01
      14   C                -0.00 -0.00  0.00    0.00 -0.00  0.00   -0.00  0.00 -0.00
      15   N                 0.00  0.00 -0.00   -0.00  0.00 -0.00    0.00 -0.00  0.00
temperature 298.1500 [K]
pressure 101325.00 [Pa]
Rotational constants [GHz] 4.21016 1.01844 0.85369
Symmetry number 1
Zero-point energy (ZPE) 0.12836 [Eh]   337011.136 [J/mol]
                           tot       elec      trans        rot        vib
Entropy [J/mol/K]       352.430      0.000    168.154    120.768     63.508
Cv [J/mol/K]            117.823      0.000     12.472     12.472     92.879
Cp [J/mol/K]            126.137      0.000     20.786     12.472     92.879
Internal energy [J/mol]                      3718.434   3718.434 348525.188
Internal energy [Eh]   -362.96668  -363.10226
Enthalpy [J/mol]                             6197.391   3718.434 348525.188
Enthalpy [Eh]          -362.96574
Gibbs free energy [J/mol]                  -43937.803 -32288.486 329590.286
Gibbs free energy [Eh] -363.00576
