#INFO: **** input file is /mmhome/boittier/home/mmml/.venv/bin/mmml ****
#!/mmhome/boittier/home/mmml/.venv/bin/python3
# -*- coding: utf-8 -*-
import sys
from mmml.cli.__main__ import main
if __name__ == "__main__":
    if sys.argv[0].endswith("-script.pyw"):
        sys.argv[0] = sys.argv[0][:-11]
    elif sys.argv[0].endswith(".exe"):
        sys.argv[0] = sys.argv[0][:-4]
    sys.exit(main())
#INFO: ******************** input file end ********************


System: uname_result(system='Linux', node='gpu08', release='5.15.0-118-generic', version='#128-Ubuntu SMP Fri Jul 5 09:28:59 UTC 2024', machine='x86_64')  Threads 32
Python 3.13.12 | packaged by conda-forge | (main, Feb  5 2026, 05:53:46) [GCC 14.3.0]
numpy 2.3.5  scipy 1.17.0  h5py 3.15.1
Date: Tue Mar 17 13:08:41 2026
PySCF version 2.12.1
PySCF path  /mmhome/boittier/home/mmml/.venv/lib/python3.13/site-packages/pyscf/__init__.py
CUDA Environment
    CuPy 14.0.0
    CUDA Path /mmhome/boittier/home/mmml/.venv/lib/python3.13/site-packages/nvidia/cu13
    CUDA Build Version 13000
    CUDA Driver Version 13000
    CUDA Runtime Version 13000
CUDA toolkit
    cuSolver (12, 0, 9)
    cuBLAS 130201
    cuTENSOR None
Device info
    Device name b'NVIDIA GeForce RTX 5090'
    Device global memory 31.36 GB
    CuPy memory fraction 0.9
    Num. Devices 2
GPU4PySCF 1.6.0
GPU4PySCF path  /mmhome/boittier/home/mmml/.venv/lib/python3.13/site-packages/gpu4pyscf

[CONFIG] conf_file None
[INPUT] verbose = 6
[INPUT] max_memory = 4000 
[INPUT] num. atoms = 16
[INPUT] num. electrons = 62
[INPUT] charge = 0
[INPUT] spin (= nelec alpha-beta = 2S) = 0
[INPUT] symmetry False subgroup None
[INPUT] Mole.unit = angstrom
[INPUT] Symbol           X                Y                Z      unit          X                Y                Z       unit  Magmom
[INPUT]  1 C      0.958000000000   0.568000000000   0.115000000000 AA    1.810357627333   1.073364438753   0.217318504325 Bohr   0.0
[INPUT]  2 H      0.648000000000   0.285000000000   0.761000000000 AA    1.224542528718   0.538571945501   1.438081580794 Bohr   0.0
[INPUT]  3 C      1.289000000000   0.100000000000   0.946000000000 AA    2.435856974564   0.188972612457   1.787680913839 Bohr   0.0
[INPUT]  4 H      0.453000000000   0.778000000000   0.104000000000 AA    0.856045934428   1.470206924912   0.196531516955 Bohr   0.0
[INPUT]  5 C      0.091000000000   0.453000000000   0.384000000000 AA    0.171965077335   0.856045934428   0.725654831833 Bohr   0.0
[INPUT]  6 H      0.423000000000   1.430000000000   0.939000000000 AA    0.799354150691   2.702308358128   1.774452830967 Bohr   0.0
[INPUT]  7 C      0.286000000000   0.018000000000   0.261000000000 AA    0.540461671626   0.034015070242   0.493218518511 Bohr   0.0
[INPUT]  8 H      1.015000000000   1.336000000000   0.143000000000 AA    1.918072016434   2.524674102419   0.270230835813 Bohr   0.0
[INPUT]  9 C      0.070000000000   0.335000000000   0.476000000000 AA    0.132280828720   0.633058251729   0.899509635293 Bohr   0.0
[INPUT] 10 C      0.917000000000   1.212000000000   0.818000000000 AA    1.732878856226   2.290348062973   1.545795969894 Bohr   0.0
[INPUT] 11 H      0.401000000000   0.059000000000   0.112000000000 AA    0.757780175951   0.111493841349   0.211649325951 Bohr   0.0
[INPUT] 12 C      0.586000000000   0.684000000000   0.222000000000 AA    1.107379508995   1.292572669203   0.419519199653 Bohr   0.0
[INPUT] 13 H      0.841000000000   0.864000000000   0.824000000000 AA    1.589259670759   1.632723371624   1.557134326642 Bohr   0.0
[INPUT] 14 H      0.652000000000   1.297000000000   0.401000000000 AA    1.232101433216   2.450974783561   0.757780175951 Bohr   0.0
[INPUT] 15 C      0.284000000000   1.447000000000   0.395000000000 AA    0.536682219376   2.734433702246   0.746441819203 Bohr   0.0
[INPUT] 16 N      0.788000000000   0.102000000000   0.350000000000 AA    1.489104186157   0.192752064706   0.661404143598 Bohr   0.0
[INPUT] ---------------- BASIS SET ---------------- 
[INPUT] l, kappa, [nprim/nctr], expnt,             c_1 c_2 ...
[INPUT] H
[INPUT] 0    0    [3    /1   ]  13.010701         0.019682158
                                1.9622572         0.13796524
                                0.44453796        0.47831935
[INPUT] 0    0    [1    /1   ]  0.12194962           1
[INPUT] 1    0    [1    /1   ]  0.8                  1
[INPUT] N
[INPUT] 0    0    [5    /1   ]  1712.8415853      -0.0053934125305
                                257.64812677      -0.040221581118
                                58.458245853      -0.1793114499
                                16.198367905      -0.46376317823
                                5.0052600809      -0.44171422662
[INPUT] 0    0    [1    /1   ]  0.58731856571        1
[INPUT] 0    0    [1    /1   ]  0.18764592253        1
[INPUT] 1    0    [3    /1   ]  13.571470233      -0.040072398852
                                2.9257372874      -0.21807045028
                                0.79927750754     -0.51294466049
[INPUT] 1    0    [1    /1   ]  0.21954348034        1
[INPUT] 2    0    [1    /1   ]  1                    1
[INPUT] C
[INPUT] 0    0    [5    /1   ]  1238.4016938      0.0054568832082
                                186.29004992      0.040638409211
                                42.251176346      0.18025593888
                                11.676557932      0.46315121755
                                3.5930506482      0.44087173314
[INPUT] 0    0    [1    /1   ]  0.40245147363        1
[INPUT] 0    0    [1    /1   ]  0.13090182668        1
[INPUT] 1    0    [3    /1   ]  9.4680970621      0.038387871728
                                2.0103545142      0.21117025112
                                0.54771004707     0.51328172114
[INPUT] 1    0    [1    /1   ]  0.15268613795        1
[INPUT] 2    0    [1    /1   ]  0.8                  1

nuclear repulsion = 1236.39904373328
number of shells = 75
number of NR pGTOs = 265
number of NR cGTOs = 161
basis = def2-SVP
ecp = {}
CPU time:         5.15


******** <class 'gpu4pyscf.df.df_jk.DFRKS'> ********
method = DFRKS
initial guess = minao
damping factor = None
level_shift factor = None
DIIS = <class 'gpu4pyscf.scf.diis.CDIIS'>
diis_start_cycle = 1
diis_space = 8
diis_damp = 0
SCF conv_tol = 1e-10
SCF conv_tol_grad = None
SCF max_cycles = 50
direct_scf = False
XC library gpu4pyscf.dft.libxc version 7.0.0 (CUDA)
    unable to decode the reference due to https://github.com/NVIDIA/cuda-python/issues/29
XC functionals = PBE0
radial grids: 
Treutler-Ahlrichs [JCP 102, 346 (1995); DOI:10.1063/1.469408] (M4) radial grids

becke partition: Becke, JCP 88, 2547 (1988); DOI:10.1063/1.454033
pruning grids: <function nwchem_prune at 0x151791cd14e0>
grids dens level: 3
symmetrized grids: False
atomic radii adjust function: <function treutler_atomic_radii_adjust at 0x151791cd1580>
User specified grid scheme (99, 590)
small_rho_cutoff = 1e-07
Set gradient conv threshold to 1e-05
    CPU time for generating initial guess                                0.47 sec, wall time      0.36 sec, GPU time    363.95 ms
Number of shells for each [l, nprim] group
    [0 5] : 9
    [0 3] : 7
    [0 1] : 25
    [1 3] : 9
    [1 1] : 16
    [2 1] : 9
sp_blocks = 21, ksh_blocks = 1, shm_size = 59512 B
    CPU time for processing contract_int3c2e_auxvec                      0.00 sec, wall time      0.01 sec, GPU time      9.24 ms
Number of shells for each [l, nprim] group
    [0 5] : 9
    [0 3] : 7
    [0 1] : 25
    [1 3] : 9
    [1 1] : 16
    [2 1] : 9
Number of shells for each [l, nprim] group
    [0 5] : 9
    [0 3] : 7
    [0 1] : 25
    [1 3] : 9
    [1 1] : 16
    [2 1] : 9
    CPU time for hcore                                                   0.05 sec, wall time      0.49 sec, GPU time    486.28 ms
atom C rad-grids = 99, ang-grids = [ 50  50  50  50  50  50  50  50  50  50  50  50  50  50  50  50  50  50
  50  50  50  50  50  50  50  50  50  50  50  50  86  86  86  86  86  86
  86  86  86  86  86  86 434 434 434 434 434 434 434 434 434 590 590 590
 590 590 590 590 590 590 590 590 590 590 590 590 590 590 590 590 590 590
 590 590 590 590 590 434 434 434 434 434 434 434 434 434 434 434 434 434
 434 434 434 434 434 434 434 434 434]
atom H rad-grids = 99, ang-grids = [ 50  50  50  50  50  50  50  50  50  50  50  50  50  50  50  50  50  50
  50  50  50  50  50  50  50  50  50  50  50  50  86  86  86  86  86  86
  86 434 434 434 434 434 434 434 434 434 434 590 590 590 590 590 590 590
 590 590 590 590 590 590 590 590 590 590 590 590 590 590 590 590 590 590
 590 590 434 434 434 434 434 434 434 434 434 434 434 434 434 434 434 434
 434 434 434 434 434 434 434 434 434]
atom N rad-grids = 99, ang-grids = [ 50  50  50  50  50  50  50  50  50  50  50  50  50  50  50  50  50  50
  50  50  50  50  50  50  50  50  50  50  50  50  50  86  86  86  86  86
  86  86  86  86  86  86  86  86 434 434 434 434 434 434 434 434 434 590
 590 590 590 590 590 590 590 590 590 590 590 590 590 590 590 590 590 590
 590 590 590 590 590 590 590 434 434 434 434 434 434 434 434 434 434 434
 434 434 434 434 434 434 434 434 434]
    CPU time for generating atomic grids                                 0.00 sec, wall time      0.01 sec, GPU time     12.34 ms
Padding 36 grids
    CPU time for sorting grids                                           0.02 sec, wall time      0.03 sec, GPU time     27.14 ms
tot grids = 513792
Number of shells for each [l, nctr] group
    [0 1] : 25
    [0 3] : 7
    [0 5] : 9
    [1 1] : 16
    [1 3] : 9
    [2 1] : 9
0 - 513792 grids are calculated on Device 0.
mem_info: unallocated=31470.06 MB, used=26.34 MB, free=32.80 MB, free_blocks=18
33033.148416 MB memory is available on Device 0, block_size None
    CPU time for eval rho                                                0.09 sec, wall time      0.71 sec, GPU time    724.61 ms
Drop grids 192497
prune_by_density_: 241 padding grids
    CPU time for setting up grids                                        0.13 sec, wall time      0.79 sec, GPU time    788.90 ms
163840 grids on Device 0
0 - 163840 grids are calculated on Device 0.
mem_info: unallocated=31682.06 MB, used=25.83 MB, free=45.07 MB, free_blocks=20
33268.306432 MB memory is available on Device 0, block_size None
157696 grids on Device 1
163840 - 321536 grids are calculated on Device 1.
mem_info: unallocated=31588.06 MB, used=11.44 MB, free=0.00 MB, free_blocks=0
33122.484224 MB memory is available on Device 1, block_size None
    CPU time for eval rho on Device 0                                    0.12 sec, wall time      0.10 sec, GPU time    105.43 ms
    CPU time for eval rho on Device 1                                    0.09 sec, wall time      0.05 sec, GPU time     54.18 ms
    CPU time for eval vxc on Device 0                                    0.14 sec, wall time      0.12 sec, GPU time    111.75 ms
0 - 163840 grids are calculated on Device 0.
mem_info: unallocated=31596.06 MB, used=45.15 MB, free=45.87 MB, free_blocks=21
33178.972672 MB memory is available on Device 0, block_size None
    CPU time for eval vxc on Device 1                                    0.11 sec, wall time      0.10 sec, GPU time     91.19 ms
163840 - 321536 grids are calculated on Device 1.
mem_info: unallocated=31474.06 MB, used=30.88 MB, free=23.84 MB, free_blocks=7
33027.942912 MB memory is available on Device 1, block_size None
    CPU time for eval integration on 0                                   0.01 sec, wall time      0.01 sec, GPU time     25.89 ms
    CPU time for eval integration on 1                                   0.01 sec, wall time      0.01 sec, GPU time     28.28 ms
    CPU time for nr_rks                                                  0.32 sec, wall time      0.25 sec, GPU time    249.92 ms
nelec by numeric integration = 61.966953411837714
    CPU time for vxc                                                     0.45 sec, wall time      1.04 sec, GPU time   1038.91 ms
Build CDERI ...
Psi4 predefined JKFIT basis set def2-svp-jkfit for HF
Default auxbasis def2-svp-jkfit is applied universally
num shells = 267, num cGTOs = 803
    CPU time for 2c2e                                                    0.13 sec, wall time      0.01 sec, GPU time     10.73 ms
Number of shells for each [l, nctr] group
    [0 1] : 25
    [0 3] : 7
    [0 5] : 9
    [1 1] : 16
    [1 3] : 9
    [2 1] : 9
Number of shells for each [l, nctr] group
    [0 1] : 88
    [0 3] : 7
    [0 5] : 9
    [1 1] : 77
    [1 3] : 9
    [2 1] : 49
    [2 2] : 8
    [2 3] : 1
    [3 1] : 2
    [3 2] : 8
    [4 1] : 9
    CPU time for Initialize q_cond                                       0.12 sec, wall time      0.00 sec, GPU time      1.50 ms
    CPU time for Get AO pairing                                          0.00 sec, wall time      0.00 sec, GPU time      0.28 ms
    CPU time for AO indices                                              0.00 sec, wall time      0.00 sec, GPU time      0.11 ms
    CPU time for Aux AO indices                                          0.00 sec, wall time      0.00 sec, GPU time      0.22 ms
    CPU time for Get AO pairs                                            0.00 sec, wall time      0.00 sec, GPU time      0.39 ms
    CPU time for prepare intopt                                          0.13 sec, wall time      0.00 sec, GPU time      4.47 ms
size of aux basis 803
Saving CDERI on GPU
CDERI size 0.040 GB on Device 0
CDERI size 0.038 GB on Device 1
    CPU time for Initialize GPU cache on Device 0                        0.00 sec, wall time      0.00 sec, GPU time      0.83 ms
    CPU time for Initialize GPU cache on Device 1                        0.00 sec, wall time      0.00 sec, GPU time      0.56 ms
    CPU time for solve 2 / 21 on Device 0                                0.16 sec, wall time      0.16 sec, GPU time    155.87 ms
    CPU time for transfer data for 2 / 21 on Device 0                    0.00 sec, wall time      0.00 sec, GPU time      0.30 ms
    CPU time for solve 5 / 21 on Device 1                                0.16 sec, wall time      0.16 sec, GPU time    156.90 ms
    CPU time for transfer data for 5 / 21 on Device 1                    0.00 sec, wall time      0.00 sec, GPU time      0.33 ms
    CPU time for solve 4 / 21 on Device 0                                0.00 sec, wall time      0.00 sec, GPU time      3.74 ms
    CPU time for solve 1 / 21 on Device 1                                0.00 sec, wall time      0.00 sec, GPU time      2.34 ms
    CPU time for transfer data for 4 / 21 on Device 0                    0.00 sec, wall time      0.00 sec, GPU time      0.23 ms
    CPU time for transfer data for 1 / 21 on Device 1                    0.00 sec, wall time      0.00 sec, GPU time      0.23 ms
    CPU time for solve 3 / 21 on Device 1                                0.00 sec, wall time      0.00 sec, GPU time      2.66 ms
    CPU time for solve 11 / 21 on Device 0                               0.00 sec, wall time      0.00 sec, GPU time      3.55 ms
    CPU time for transfer data for 3 / 21 on Device 1                    0.00 sec, wall time      0.00 sec, GPU time      0.93 ms
    CPU time for transfer data for 11 / 21 on Device 0                   0.00 sec, wall time      0.00 sec, GPU time      0.31 ms
    CPU time for solve 16 / 21 on Device 1                               0.00 sec, wall time      0.00 sec, GPU time      2.84 ms
    CPU time for transfer data for 16 / 21 on Device 1                   0.00 sec, wall time      0.00 sec, GPU time      0.45 ms
    CPU time for solve 12 / 21 on Device 0                               0.01 sec, wall time      0.00 sec, GPU time      4.61 ms
    CPU time for solve 7 / 21 on Device 1                                0.00 sec, wall time      0.00 sec, GPU time      2.29 ms
    CPU time for transfer data for 12 / 21 on Device 0                   0.00 sec, wall time      0.00 sec, GPU time      0.77 ms
    CPU time for transfer data for 7 / 21 on Device 1                    0.00 sec, wall time      0.00 sec, GPU time      0.21 ms
    CPU time for solve 0 / 21 on Device 0                                0.00 sec, wall time      0.00 sec, GPU time      2.10 ms
    CPU time for transfer data for 0 / 21 on Device 0                    0.00 sec, wall time      0.00 sec, GPU time      1.39 ms
    CPU time for solve 17 / 21 on Device 1                               0.00 sec, wall time      0.00 sec, GPU time      3.53 ms
    CPU time for transfer data for 17 / 21 on Device 1                   0.00 sec, wall time      0.00 sec, GPU time      0.26 ms
    CPU time for solve 10 / 21 on Device 1                               0.00 sec, wall time      0.00 sec, GPU time      2.69 ms
    CPU time for transfer data for 10 / 21 on Device 1                   0.00 sec, wall time      0.00 sec, GPU time      0.36 ms
    CPU time for solve 14 / 21 on Device 0                               0.01 sec, wall time      0.01 sec, GPU time      5.76 ms
    CPU time for solve 15 / 21 on Device 1                               0.00 sec, wall time      0.00 sec, GPU time      2.66 ms
    CPU time for transfer data for 14 / 21 on Device 0                   0.00 sec, wall time      0.00 sec, GPU time      0.45 ms
    CPU time for transfer data for 15 / 21 on Device 1                   0.00 sec, wall time      0.00 sec, GPU time      0.20 ms
    CPU time for solve 6 / 21 on Device 1                                0.00 sec, wall time      0.00 sec, GPU time      2.23 ms
    CPU time for solve 8 / 21 on Device 0                                0.00 sec, wall time      0.00 sec, GPU time      2.78 ms
    CPU time for transfer data for 6 / 21 on Device 1                    0.00 sec, wall time      0.00 sec, GPU time      0.55 ms
    CPU time for transfer data for 8 / 21 on Device 0                    0.00 sec, wall time      0.00 sec, GPU time      0.21 ms
    CPU time for solve 13 / 21 on Device 1                               0.01 sec, wall time      0.00 sec, GPU time      3.14 ms
    CPU time for solve 20 / 21 on Device 0                               0.00 sec, wall time      0.00 sec, GPU time      3.54 ms
    CPU time for transfer data for 13 / 21 on Device 1                   0.00 sec, wall time      0.00 sec, GPU time      0.61 ms
    CPU time for transfer data for 20 / 21 on Device 0                   0.00 sec, wall time      0.00 sec, GPU time      0.26 ms
    CPU time for solve 9 / 21 on Device 0                                0.00 sec, wall time      0.00 sec, GPU time      2.50 ms
    CPU time for transfer data for 9 / 21 on Device 0                    0.00 sec, wall time      0.00 sec, GPU time      0.21 ms
    CPU time for solve 19 / 21 on Device 0                               0.00 sec, wall time      0.00 sec, GPU time      4.25 ms
    CPU time for transfer data for 19 / 21 on Device 0                   0.00 sec, wall time      0.00 sec, GPU time      0.22 ms
    CPU time for solve 18 / 21 on Device 0                               0.00 sec, wall time      0.00 sec, GPU time      2.69 ms
    CPU time for transfer data for 18 / 21 on Device 0                   0.00 sec, wall time      0.00 sec, GPU time      0.29 ms
    CPU time for cholesky_eri                                            0.49 sec, wall time      0.29 sec, GPU time    292.56 ms
    CPU time for init jk                                                 0.62 sec, wall time      0.30 sec, GPU time    303.35 ms
30.233 GB memory available on Device 0, block size = 256
33.079 GB memory available on Device 1, block size = 256
    CPU time for vj and vk on Device 1                                   0.02 sec, wall time      0.01 sec, GPU time     14.89 ms
    CPU time for vj and vk on Device 0                                   0.02 sec, wall time      0.01 sec, GPU time     15.44 ms
    CPU time for vj and vk                                               0.02 sec, wall time      0.02 sec, GPU time     18.18 ms
    CPU time for veff                                                    0.64 sec, wall time      0.33 sec, GPU time    325.26 ms
E1 = -2542.127926488658  Ecoul = 1064.7987919537281  Exc = -78.60011928378646
init E= -319.530210085434
cond(S) = 70421204.63362311

WARN: 1 small eigenvectors of overlap matrix removed because of linear dependency between AOs.
The support for low-rank overlap matrix is not fully tested. Please report any bug you encountered to the developers.

    CPU time for SCF initialization                                      1.63 sec, wall time      2.37 sec, GPU time   2370.90 ms
    CPU time for DIIS                                                    0.00 sec, wall time      0.00 sec, GPU time      0.24 ms
    CPU time for eig                                                     0.00 sec, wall time      0.00 sec, GPU time      3.86 ms
  HOMO = -0.879733773744842  LUMO = -0.818512425448864
163840 grids on Device 0
157696 grids on Device 1
0 - 163840 grids are calculated on Device 0.
163840 - 321536 grids are calculated on Device 1.
mem_info: unallocated=31278.06 MB, used=77.71 MB, free=284.82 MB, free_blocks=30
mem_info: unallocated=31290.06 MB, used=49.83 MB, free=241.30 MB, free_blocks=15
33096.080896 MB memory is available on Device 0, block_size None
33063.028736 MB memory is available on Device 1, block_size None
    CPU time for eval rho on Device 0                                    0.02 sec, wall time      0.01 sec, GPU time     14.95 ms
    CPU time for eval rho on Device 1                                    0.02 sec, wall time      0.01 sec, GPU time     15.79 ms
    CPU time for eval vxc on Device 0                                    0.01 sec, wall time      0.00 sec, GPU time      1.58 ms
0 - 163840 grids are calculated on Device 0.
mem_info: unallocated=31214.06 MB, used=96.99 MB, free=265.54 MB, free_blocks=29
33008.753152 MB memory is available on Device 0, block_size None
    CPU time for eval vxc on Device 1                                    0.01 sec, wall time      0.00 sec, GPU time      0.77 ms
163840 - 321536 grids are calculated on Device 1.
mem_info: unallocated=31226.06 MB, used=69.23 MB, free=221.91 MB, free_blocks=17
32975.586304 MB memory is available on Device 1, block_size None
    CPU time for eval integration on 0                                   0.01 sec, wall time      0.00 sec, GPU time     21.32 ms
    CPU time for eval integration on 1                                   0.01 sec, wall time      0.00 sec, GPU time     24.37 ms
    CPU time for nr_rks                                                  0.07 sec, wall time      0.04 sec, GPU time     43.16 ms
nelec by numeric integration = 61.9999992363317
    CPU time for vxc                                                     0.07 sec, wall time      0.04 sec, GPU time     43.25 ms
33.074 GB memory available on Device 1, block size = 256
30.232 GB memory available on Device 0, block size = 256
    CPU time for vj and vk on Device 1                                   0.00 sec, wall time      0.00 sec, GPU time      3.94 ms
    CPU time for vj and vk on Device 0                                   0.01 sec, wall time      0.00 sec, GPU time      4.38 ms
    CPU time for vj and vk                                               0.01 sec, wall time      0.01 sec, GPU time      6.15 ms
    CPU time for veff                                                    0.01 sec, wall time      0.01 sec, GPU time      6.47 ms
    CPU time for veff                                                    0.09 sec, wall time      0.06 sec, GPU time     53.24 ms
E1 = -2714.186122206658  Ecoul = 1351.0243636959694  Exc = -77.56213446630011
    CPU time for cycle=1                                                 0.09 sec, wall time      0.06 sec, GPU time     60.18 ms
cycle= 1 E= -204.324849243707  delta_E=  115  |g|= 13.7  |ddm|= 3.08e+03
diis-c [-188.33658412    1.        ]
    CPU time for DIIS                                                    0.00 sec, wall time      0.00 sec, GPU time      2.89 ms
    CPU time for eig                                                     0.00 sec, wall time      0.00 sec, GPU time      4.26 ms
  HOMO = 0.354486092315761  LUMO = 0.360666523772059
163840 grids on Device 0
157696 grids on Device 1
0 - 163840 grids are calculated on Device 0.
mem_info: unallocated=31278.06 MB, used=77.91 MB, free=284.62 MB, free_blocks=29
33095.872 MB memory is available on Device 0, block_size None
163840 - 321536 grids are calculated on Device 1.
mem_info: unallocated=31290.06 MB, used=49.83 MB, free=241.30 MB, free_blocks=15
33063.028736 MB memory is available on Device 1, block_size None
    CPU time for eval rho on Device 0                                    0.01 sec, wall time      0.01 sec, GPU time     12.08 ms
    CPU time for eval rho on Device 1                                    0.01 sec, wall time      0.01 sec, GPU time     12.79 ms
    CPU time for eval vxc on Device 0                                    0.01 sec, wall time      0.00 sec, GPU time      1.53 ms
0 - 163840 grids are calculated on Device 0.
mem_info: unallocated=31214.06 MB, used=97.19 MB, free=265.34 MB, free_blocks=28
33008.544256 MB memory is available on Device 0, block_size None
    CPU time for eval vxc on Device 1                                    0.01 sec, wall time      0.00 sec, GPU time      0.80 ms
163840 - 321536 grids are calculated on Device 1.
mem_info: unallocated=31226.06 MB, used=69.23 MB, free=221.91 MB, free_blocks=17
32975.586304 MB memory is available on Device 1, block_size None
    CPU time for eval integration on 0                                   0.01 sec, wall time      0.00 sec, GPU time     19.11 ms
    CPU time for eval integration on 1                                   0.01 sec, wall time      0.00 sec, GPU time     23.07 ms
    CPU time for nr_rks                                                  0.07 sec, wall time      0.04 sec, GPU time     38.48 ms
nelec by numeric integration = 61.999550168651325
    CPU time for vxc                                                     0.07 sec, wall time      0.04 sec, GPU time     38.55 ms
33.074 GB memory available on Device 1, block size = 256
30.232 GB memory available on Device 0, block size = 256
    CPU time for vj and vk on Device 1                                   0.00 sec, wall time      0.00 sec, GPU time      3.20 ms
    CPU time for vj and vk on Device 0                                   0.00 sec, wall time      0.00 sec, GPU time      3.58 ms
    CPU time for vj and vk                                               0.01 sec, wall time      0.00 sec, GPU time      4.87 ms
    CPU time for veff                                                    0.01 sec, wall time      0.01 sec, GPU time      5.32 ms
    CPU time for veff                                                    0.08 sec, wall time      0.05 sec, GPU time     44.28 ms
E1 = -2050.4274498200175  Ecoul = 760.6630984803269  Exc = -53.09889388060664
    CPU time for cycle=2                                                 0.08 sec, wall time      0.05 sec, GPU time     51.81 ms
cycle= 2 E= -106.464201487016  delta_E= 97.9  |g|=   26  |ddm|= 1.73e+05
diis-c [-109.3551662     0.72850777    0.27149223]
    CPU time for DIIS                                                    0.00 sec, wall time      0.00 sec, GPU time      0.42 ms
    CPU time for eig                                                     0.00 sec, wall time      0.00 sec, GPU time      4.21 ms
  HOMO = -0.475711472792494  LUMO = -0.40375174512844
163840 grids on Device 0
157696 grids on Device 1
0 - 163840 grids are calculated on Device 0.
mem_info: unallocated=31278.06 MB, used=78.11 MB, free=284.42 MB, free_blocks=30
33095.664128 MB memory is available on Device 0, block_size None
163840 - 321536 grids are calculated on Device 1.
mem_info: unallocated=31290.06 MB, used=49.83 MB, free=241.30 MB, free_blocks=15
33063.028736 MB memory is available on Device 1, block_size None
    CPU time for eval rho on Device 0                                    0.01 sec, wall time      0.01 sec, GPU time     11.72 ms
    CPU time for eval rho on Device 1                                    0.01 sec, wall time      0.01 sec, GPU time     12.60 ms
    CPU time for eval vxc on Device 0                                    0.01 sec, wall time      0.00 sec, GPU time      1.64 ms
0 - 163840 grids are calculated on Device 0.
mem_info: unallocated=31214.06 MB, used=97.39 MB, free=265.14 MB, free_blocks=29
33008.336384 MB memory is available on Device 0, block_size None
    CPU time for eval vxc on Device 1                                    0.01 sec, wall time      0.00 sec, GPU time      0.79 ms
163840 - 321536 grids are calculated on Device 1.
mem_info: unallocated=31226.06 MB, used=69.23 MB, free=221.91 MB, free_blocks=17
32975.586304 MB memory is available on Device 1, block_size None
    CPU time for eval integration on 0                                   0.01 sec, wall time      0.00 sec, GPU time     20.19 ms
    CPU time for eval integration on 1                                   0.01 sec, wall time      0.00 sec, GPU time     23.69 ms
    CPU time for nr_rks                                                  0.07 sec, wall time      0.04 sec, GPU time     38.74 ms
nelec by numeric integration = 62.0000336429335
    CPU time for vxc                                                     0.07 sec, wall time      0.04 sec, GPU time     38.82 ms
30.231 GB memory available on Device 0, block size = 256
33.074 GB memory available on Device 1, block size = 256
    CPU time for vj and vk on Device 0                                   0.00 sec, wall time      0.00 sec, GPU time      3.40 ms
    CPU time for vj and vk on Device 1                                   0.00 sec, wall time      0.00 sec, GPU time      3.26 ms
    CPU time for vj and vk                                               0.01 sec, wall time      0.00 sec, GPU time      4.84 ms
    CPU time for veff                                                    0.01 sec, wall time      0.01 sec, GPU time      5.34 ms
    CPU time for veff                                                    0.08 sec, wall time      0.05 sec, GPU time     44.56 ms
E1 = -2575.568166025593  Ecoul = 1185.6835872062304  Exc = -69.91293371007481
    CPU time for cycle=3                                                 0.08 sec, wall time      0.05 sec, GPU time     49.75 ms
cycle= 3 E= -223.398468796156  delta_E= -117  |g|= 2.63  |ddm|= 1.74e+05
diis-c [-4.16626987  0.11192996  0.00951379  0.87855625]
    CPU time for DIIS                                                    0.00 sec, wall time      0.00 sec, GPU time      0.44 ms
    CPU time for eig                                                     0.00 sec, wall time      0.00 sec, GPU time      4.24 ms
  HOMO = 0.0784711796240909  LUMO = 0.102925374900714
163840 grids on Device 0
157696 grids on Device 1
0 - 163840 grids are calculated on Device 0.
mem_info: unallocated=31278.06 MB, used=78.31 MB, free=284.22 MB, free_blocks=31
33095.456256 MB memory is available on Device 0, block_size None
163840 - 321536 grids are calculated on Device 1.
mem_info: unallocated=31290.06 MB, used=49.83 MB, free=241.30 MB, free_blocks=15
33063.028736 MB memory is available on Device 1, block_size None
    CPU time for eval rho on Device 0                                    0.02 sec, wall time      0.02 sec, GPU time     16.33 ms
    CPU time for eval vxc on Device 0                                    0.00 sec, wall time      0.00 sec, GPU time      0.97 ms
0 - 163840 grids are calculated on Device 0.
mem_info: unallocated=31214.06 MB, used=97.59 MB, free=264.94 MB, free_blocks=29
33008.128512 MB memory is available on Device 0, block_size None
    CPU time for eval rho on Device 1                                    0.02 sec, wall time      0.02 sec, GPU time     19.43 ms
    CPU time for eval vxc on Device 1                                    0.01 sec, wall time      0.01 sec, GPU time      7.32 ms
163840 - 321536 grids are calculated on Device 1.
mem_info: unallocated=31226.06 MB, used=69.23 MB, free=221.91 MB, free_blocks=17
32975.586304 MB memory is available on Device 1, block_size None
    CPU time for eval integration on 0                                   0.01 sec, wall time      0.00 sec, GPU time     18.01 ms
    CPU time for eval integration on 1                                   0.01 sec, wall time      0.00 sec, GPU time     26.06 ms
    CPU time for nr_rks                                                  0.09 sec, wall time      0.05 sec, GPU time     54.47 ms
nelec by numeric integration = 62.000013443610925
    CPU time for vxc                                                     0.09 sec, wall time      0.05 sec, GPU time     54.51 ms
30.231 GB memory available on Device 0, block size = 256
33.074 GB memory available on Device 1, block size = 256
    CPU time for vj and vk on Device 0                                   0.00 sec, wall time      0.00 sec, GPU time      3.88 ms
    CPU time for vj and vk on Device 1                                   0.00 sec, wall time      0.00 sec, GPU time      3.89 ms
    CPU time for vj and vk                                               0.01 sec, wall time      0.00 sec, GPU time      4.84 ms
    CPU time for veff                                                    0.01 sec, wall time      0.01 sec, GPU time      5.10 ms
    CPU time for veff                                                    0.10 sec, wall time      0.06 sec, GPU time     59.98 ms
E1 = -2517.8749569207066  Ecoul = 1126.348445979802  Exc = -67.38545424654296
    CPU time for cycle=4                                                 0.11 sec, wall time      0.07 sec, GPU time     65.03 ms
cycle= 4 E= -222.512921454166  delta_E= 0.886  |g|= 3.18  |ddm|= 4.16e+03
diis-c [-1.43622142  0.08751714 -0.00379492  0.54010022  0.37617756]
    CPU time for DIIS                                                    0.00 sec, wall time      0.00 sec, GPU time      0.48 ms
    CPU time for eig                                                     0.00 sec, wall time      0.00 sec, GPU time      4.24 ms
  HOMO = -0.116098698369929  LUMO = 0.00302853876368713
163840 grids on Device 0
157696 grids on Device 1
0 - 163840 grids are calculated on Device 0.
mem_info: unallocated=31278.06 MB, used=78.50 MB, free=284.03 MB, free_blocks=29
33095.248384 MB memory is available on Device 0, block_size None
163840 - 321536 grids are calculated on Device 1.
mem_info: unallocated=31290.06 MB, used=49.83 MB, free=241.30 MB, free_blocks=15
33063.028736 MB memory is available on Device 1, block_size None
    CPU time for eval rho on Device 0                                    0.01 sec, wall time      0.01 sec, GPU time     12.31 ms
    CPU time for eval rho on Device 1                                    0.02 sec, wall time      0.01 sec, GPU time     13.19 ms
    CPU time for eval vxc on Device 0                                    0.01 sec, wall time      0.00 sec, GPU time      1.70 ms
0 - 163840 grids are calculated on Device 0.
mem_info: unallocated=31214.06 MB, used=97.79 MB, free=264.74 MB, free_blocks=28
33007.92064 MB memory is available on Device 0, block_size None
    CPU time for eval vxc on Device 1                                    0.01 sec, wall time      0.00 sec, GPU time      0.79 ms
163840 - 321536 grids are calculated on Device 1.
mem_info: unallocated=31226.06 MB, used=69.23 MB, free=221.91 MB, free_blocks=17
32975.586304 MB memory is available on Device 1, block_size None
    CPU time for eval integration on 0                                   0.01 sec, wall time      0.00 sec, GPU time     20.25 ms
    CPU time for eval integration on 1                                   0.01 sec, wall time      0.00 sec, GPU time     23.76 ms
    CPU time for nr_rks                                                  0.07 sec, wall time      0.04 sec, GPU time     39.52 ms
nelec by numeric integration = 62.0000451018676
    CPU time for vxc                                                     0.07 sec, wall time      0.04 sec, GPU time     39.59 ms
33.074 GB memory available on Device 1, block size = 256
30.231 GB memory available on Device 0, block size = 256
    CPU time for vj and vk on Device 1                                   0.00 sec, wall time      0.00 sec, GPU time      3.14 ms
    CPU time for vj and vk on Device 0                                   0.00 sec, wall time      0.00 sec, GPU time      3.56 ms
    CPU time for vj and vk                                               0.01 sec, wall time      0.00 sec, GPU time      4.83 ms
    CPU time for veff                                                    0.01 sec, wall time      0.01 sec, GPU time      5.29 ms
    CPU time for veff                                                    0.08 sec, wall time      0.05 sec, GPU time     45.26 ms
E1 = -2565.3817290519146  Ecoul = 1174.3111431545244  Exc = -69.44344303593543
    CPU time for cycle=5                                                 0.08 sec, wall time      0.05 sec, GPU time     50.35 ms
cycle= 5 E= -224.114985200044  delta_E= -1.6  |g|= 1.14  |ddm|= 3.89e+03
diis-c [-0.39646049  0.040663   -0.00457787  0.17349276  0.22765139  0.56277071]
    CPU time for DIIS                                                    0.00 sec, wall time      0.00 sec, GPU time      0.53 ms
    CPU time for eig                                                     0.00 sec, wall time      0.00 sec, GPU time      4.23 ms
  HOMO = -0.153494800363875  LUMO = -0.0441148748261043
163840 grids on Device 0
157696 grids on Device 1
163840 - 321536 grids are calculated on Device 1.
0 - 163840 grids are calculated on Device 0.
mem_info: unallocated=31290.06 MB, used=49.83 MB, free=241.30 MB, free_blocks=15
mem_info: unallocated=31278.06 MB, used=78.70 MB, free=283.83 MB, free_blocks=30
33063.028736 MB memory is available on Device 1, block_size None
33095.040512 MB memory is available on Device 0, block_size None
    CPU time for eval rho on Device 0                                    0.01 sec, wall time      0.01 sec, GPU time     12.18 ms
    CPU time for eval rho on Device 1                                    0.01 sec, wall time      0.01 sec, GPU time     12.64 ms
    CPU time for eval vxc on Device 0                                    0.01 sec, wall time      0.00 sec, GPU time      1.36 ms
0 - 163840 grids are calculated on Device 0.
mem_info: unallocated=31214.06 MB, used=97.98 MB, free=264.55 MB, free_blocks=28
33007.712768 MB memory is available on Device 0, block_size None
    CPU time for eval vxc on Device 1                                    0.01 sec, wall time      0.00 sec, GPU time      0.81 ms
163840 - 321536 grids are calculated on Device 1.
mem_info: unallocated=31226.06 MB, used=69.23 MB, free=221.91 MB, free_blocks=17
32975.586304 MB memory is available on Device 1, block_size None
    CPU time for eval integration on 0                                   0.01 sec, wall time      0.00 sec, GPU time     21.39 ms
    CPU time for eval integration on 1                                   0.01 sec, wall time      0.00 sec, GPU time     24.41 ms
    CPU time for nr_rks                                                  0.07 sec, wall time      0.04 sec, GPU time     39.71 ms
nelec by numeric integration = 62.00004540584699
    CPU time for vxc                                                     0.07 sec, wall time      0.04 sec, GPU time     39.78 ms
30.231 GB memory available on Device 0, block size = 256
33.074 GB memory available on Device 1, block size = 256
    CPU time for vj and vk on Device 1                                   0.00 sec, wall time      0.00 sec, GPU time      3.01 ms
    CPU time for vj and vk on Device 0                                   0.00 sec, wall time      0.00 sec, GPU time      3.19 ms
    CPU time for vj and vk                                               0.01 sec, wall time      0.00 sec, GPU time      4.54 ms
    CPU time for veff                                                    0.01 sec, wall time      0.00 sec, GPU time      4.88 ms
    CPU time for veff                                                    0.08 sec, wall time      0.05 sec, GPU time     45.04 ms
E1 = -2566.5290482236214  Ecoul = 1175.265035907823  Exc = -69.43116155094538
    CPU time for cycle=6                                                 0.08 sec, wall time      0.05 sec, GPU time     50.17 ms
cycle= 6 E= -224.296130133462  delta_E= -0.181  |g|= 0.417  |ddm|=  349
diis-c [-1.57894464e-02  1.09465288e-03 -2.21641635e-04  7.50987037e-04
  8.57998971e-03  2.65778882e-01  7.24017130e-01]
    CPU time for DIIS                                                    0.00 sec, wall time      0.00 sec, GPU time      0.59 ms
    CPU time for eig                                                     0.00 sec, wall time      0.00 sec, GPU time      4.22 ms
  HOMO = -0.153539764863505  LUMO = -0.0295289202075261
163840 grids on Device 0
157696 grids on Device 1
0 - 163840 grids are calculated on Device 0.
mem_info: unallocated=31278.06 MB, used=78.90 MB, free=283.63 MB, free_blocks=31
33094.83264 MB memory is available on Device 0, block_size None
163840 - 321536 grids are calculated on Device 1.
mem_info: unallocated=31290.06 MB, used=49.83 MB, free=241.30 MB, free_blocks=15
33063.028736 MB memory is available on Device 1, block_size None
    CPU time for eval rho on Device 0                                    0.01 sec, wall time      0.01 sec, GPU time     12.21 ms
    CPU time for eval rho on Device 1                                    0.01 sec, wall time      0.01 sec, GPU time     13.03 ms
    CPU time for eval vxc on Device 0                                    0.01 sec, wall time      0.00 sec, GPU time      1.62 ms
0 - 163840 grids are calculated on Device 0.
mem_info: unallocated=31214.06 MB, used=98.18 MB, free=264.35 MB, free_blocks=30
33007.504896 MB memory is available on Device 0, block_size None
    CPU time for eval vxc on Device 1                                    0.01 sec, wall time      0.00 sec, GPU time      0.80 ms
163840 - 321536 grids are calculated on Device 1.
mem_info: unallocated=31226.06 MB, used=69.23 MB, free=221.91 MB, free_blocks=17
32975.586304 MB memory is available on Device 1, block_size None
    CPU time for eval integration on 0                                   0.01 sec, wall time      0.00 sec, GPU time     19.82 ms
    CPU time for eval integration on 1                                   0.01 sec, wall time      0.00 sec, GPU time     23.74 ms
    CPU time for nr_rks                                                  0.07 sec, wall time      0.04 sec, GPU time     39.33 ms
nelec by numeric integration = 62.00004599178321
    CPU time for vxc                                                     0.07 sec, wall time      0.04 sec, GPU time     39.40 ms
30.230 GB memory available on Device 0, block size = 256
33.074 GB memory available on Device 1, block size = 256
    CPU time for vj and vk on Device 1                                   0.00 sec, wall time      0.00 sec, GPU time      3.31 ms
    CPU time for vj and vk on Device 0                                   0.00 sec, wall time      0.00 sec, GPU time      3.46 ms
    CPU time for vj and vk                                               0.01 sec, wall time      0.00 sec, GPU time      4.60 ms
    CPU time for veff                                                    0.01 sec, wall time      0.00 sec, GPU time      4.88 ms
    CPU time for veff                                                    0.08 sec, wall time      0.05 sec, GPU time     44.66 ms
E1 = -2565.8410792542727  Ecoul = 1174.5414070035963  Exc = -69.41655781056062
    CPU time for cycle=7                                                 0.08 sec, wall time      0.05 sec, GPU time     49.83 ms
cycle= 7 E= -224.317186327955  delta_E= -0.0211  |g|= 0.119  |ddm|= 58.9
diis-c [-1.84382144e-03  3.16260890e-05  8.93755162e-05  1.48952161e-03
 -7.43691748e-03  1.20320641e-01  3.17384738e-01  5.68121016e-01]
    CPU time for DIIS                                                    0.00 sec, wall time      0.00 sec, GPU time      0.60 ms
    CPU time for eig                                                     0.00 sec, wall time      0.00 sec, GPU time      4.25 ms
  HOMO = -0.15098743466787  LUMO = -0.0226642570270754
163840 grids on Device 0
157696 grids on Device 1
0 - 163840 grids are calculated on Device 0.
mem_info: unallocated=31278.06 MB, used=79.10 MB, free=283.43 MB, free_blocks=32
33094.624768 MB memory is available on Device 0, block_size None
163840 - 321536 grids are calculated on Device 1.
mem_info: unallocated=31290.06 MB, used=49.83 MB, free=241.30 MB, free_blocks=15
33063.028736 MB memory is available on Device 1, block_size None
    CPU time for eval rho on Device 0                                    0.01 sec, wall time      0.01 sec, GPU time     12.17 ms
    CPU time for eval rho on Device 1                                    0.01 sec, wall time      0.01 sec, GPU time     12.73 ms
    CPU time for eval vxc on Device 0                                    0.01 sec, wall time      0.00 sec, GPU time      1.37 ms
0 - 163840 grids are calculated on Device 0.
mem_info: unallocated=31214.06 MB, used=98.38 MB, free=264.15 MB, free_blocks=30
33007.297024 MB memory is available on Device 0, block_size None
    CPU time for eval vxc on Device 1                                    0.01 sec, wall time      0.00 sec, GPU time      0.79 ms
163840 - 321536 grids are calculated on Device 1.
mem_info: unallocated=31226.06 MB, used=69.23 MB, free=221.91 MB, free_blocks=17
32975.586304 MB memory is available on Device 1, block_size None
    CPU time for eval integration on 0                                   0.01 sec, wall time      0.00 sec, GPU time     19.15 ms
    CPU time for eval integration on 1                                   0.01 sec, wall time      0.00 sec, GPU time     22.70 ms
    CPU time for nr_rks                                                  0.07 sec, wall time      0.04 sec, GPU time     37.99 ms
nelec by numeric integration = 62.00004592170247
    CPU time for vxc                                                     0.07 sec, wall time      0.04 sec, GPU time     38.04 ms
30.230 GB memory available on Device 0, block size = 256
33.074 GB memory available on Device 1, block size = 256
    CPU time for vj and vk on Device 0                                   0.00 sec, wall time      0.00 sec, GPU time      3.11 ms
    CPU time for vj and vk on Device 1                                   0.00 sec, wall time      0.00 sec, GPU time      3.02 ms
    CPU time for vj and vk                                               0.01 sec, wall time      0.00 sec, GPU time      4.14 ms
    CPU time for veff                                                    0.01 sec, wall time      0.00 sec, GPU time      4.40 ms
    CPU time for veff                                                    0.08 sec, wall time      0.05 sec, GPU time     42.82 ms
E1 = -2565.194058750749  Ecoul = 1173.8620316025103  Exc = -69.3858736484672
    CPU time for cycle=8                                                 0.08 sec, wall time      0.05 sec, GPU time     48.03 ms
cycle= 8 E= -224.318857063424  delta_E= -0.00167  |g|= 0.0767  |ddm|= 63.9
diis-c [-5.68239695e-04  8.15544061e-05 -3.20872103e-05 -6.88560910e-04
 -9.42041150e-03  5.78123827e-02  1.25865816e-01  3.98077593e-01
  4.28303714e-01]
    CPU time for DIIS                                                    0.00 sec, wall time      0.00 sec, GPU time      0.65 ms
    CPU time for eig                                                     0.00 sec, wall time      0.00 sec, GPU time      4.23 ms
  HOMO = -0.153602453010299  LUMO = -0.0236063837462065
163840 grids on Device 0
157696 grids on Device 1
163840 - 321536 grids are calculated on Device 1.
mem_info: unallocated=31290.06 MB, used=49.83 MB, free=241.30 MB, free_blocks=15
33063.028736 MB memory is available on Device 1, block_size None
0 - 163840 grids are calculated on Device 0.
mem_info: unallocated=31278.06 MB, used=79.30 MB, free=283.23 MB, free_blocks=34
33094.416896 MB memory is available on Device 0, block_size None
    CPU time for eval rho on Device 0                                    0.01 sec, wall time      0.01 sec, GPU time     12.20 ms
    CPU time for eval rho on Device 1                                    0.01 sec, wall time      0.01 sec, GPU time     12.77 ms
    CPU time for eval vxc on Device 0                                    0.01 sec, wall time      0.00 sec, GPU time      1.39 ms
0 - 163840 grids are calculated on Device 0.
mem_info: unallocated=31214.06 MB, used=98.58 MB, free=263.95 MB, free_blocks=33
33007.089152 MB memory is available on Device 0, block_size None
    CPU time for eval vxc on Device 1                                    0.01 sec, wall time      0.00 sec, GPU time      0.80 ms
163840 - 321536 grids are calculated on Device 1.
mem_info: unallocated=31226.06 MB, used=69.23 MB, free=221.91 MB, free_blocks=17
32975.586304 MB memory is available on Device 1, block_size None
    CPU time for eval integration on 0                                   0.01 sec, wall time      0.00 sec, GPU time     19.46 ms
    CPU time for eval integration on 1                                   0.01 sec, wall time      0.00 sec, GPU time     23.38 ms
    CPU time for nr_rks                                                  0.07 sec, wall time      0.04 sec, GPU time     38.69 ms
nelec by numeric integration = 62.000046419758476
    CPU time for vxc                                                     0.07 sec, wall time      0.04 sec, GPU time     38.76 ms
30.230 GB memory available on Device 0, block size = 256
33.074 GB memory available on Device 1, block size = 256
    CPU time for vj and vk on Device 1                                   0.00 sec, wall time      0.00 sec, GPU time      3.24 ms
    CPU time for vj and vk on Device 0                                   0.00 sec, wall time      0.00 sec, GPU time      3.38 ms
    CPU time for vj and vk                                               0.01 sec, wall time      0.00 sec, GPU time      4.32 ms
    CPU time for veff                                                    0.01 sec, wall time      0.00 sec, GPU time      4.59 ms
    CPU time for veff                                                    0.08 sec, wall time      0.05 sec, GPU time     43.73 ms
E1 = -2565.6413539025625  Ecoul = 1174.3313541786479  Exc = -69.40876490944557
    CPU time for cycle=9                                                 0.08 sec, wall time      0.05 sec, GPU time     48.98 ms
cycle= 9 E= -224.319720900078  delta_E= -0.000864  |g|= 0.0222  |ddm|= 14.3
diis-c [-1.02677154e-04  1.05961811e+00 -4.54623191e-05 -8.19420650e-04
 -5.17259505e-03 -4.34753962e-03 -2.39840092e-02  2.90010142e-02
 -5.42501018e-02]
    CPU time for DIIS                                                    0.00 sec, wall time      0.00 sec, GPU time      0.64 ms
    CPU time for eig                                                     0.00 sec, wall time      0.00 sec, GPU time      4.22 ms
  HOMO = -0.155261347453882  LUMO = -0.0244253149458282
163840 grids on Device 0
157696 grids on Device 1
0 - 163840 grids are calculated on Device 0.
163840 - 321536 grids are calculated on Device 1.
mem_info: unallocated=31278.06 MB, used=79.30 MB, free=283.23 MB, free_blocks=32
mem_info: unallocated=31290.06 MB, used=49.83 MB, free=241.30 MB, free_blocks=15
33094.416896 MB memory is available on Device 0, block_size None
33063.028736 MB memory is available on Device 1, block_size None
    CPU time for eval rho on Device 0                                    0.01 sec, wall time      0.01 sec, GPU time     12.28 ms
    CPU time for eval rho on Device 1                                    0.01 sec, wall time      0.01 sec, GPU time     12.89 ms
    CPU time for eval vxc on Device 0                                    0.01 sec, wall time      0.00 sec, GPU time      1.39 ms
0 - 163840 grids are calculated on Device 0.
mem_info: unallocated=31214.06 MB, used=98.58 MB, free=263.95 MB, free_blocks=30
33007.089152 MB memory is available on Device 0, block_size None
    CPU time for eval vxc on Device 1                                    0.01 sec, wall time      0.00 sec, GPU time      0.78 ms
163840 - 321536 grids are calculated on Device 1.
mem_info: unallocated=31226.06 MB, used=69.23 MB, free=221.91 MB, free_blocks=17
32975.586304 MB memory is available on Device 1, block_size None
    CPU time for eval integration on 0                                   0.01 sec, wall time      0.00 sec, GPU time     18.75 ms
    CPU time for eval integration on 1                                   0.01 sec, wall time      0.00 sec, GPU time     22.72 ms
    CPU time for nr_rks                                                  0.07 sec, wall time      0.04 sec, GPU time     38.08 ms
nelec by numeric integration = 62.000046738613634
    CPU time for vxc                                                     0.07 sec, wall time      0.04 sec, GPU time     38.13 ms
30.230 GB memory available on Device 0, block size = 256
33.074 GB memory available on Device 1, block size = 256
    CPU time for vj and vk on Device 1                                   0.00 sec, wall time      0.00 sec, GPU time      3.01 ms
    CPU time for vj and vk on Device 0                                   0.00 sec, wall time      0.00 sec, GPU time      3.14 ms
    CPU time for vj and vk                                               0.01 sec, wall time      0.00 sec, GPU time      3.99 ms
    CPU time for veff                                                    0.01 sec, wall time      0.00 sec, GPU time      4.25 ms
    CPU time for veff                                                    0.08 sec, wall time      0.05 sec, GPU time     42.76 ms
E1 = -2565.8156879002654  Ecoul = 1174.5146391552694  Exc = -69.41789135081939
    CPU time for cycle=10                                                0.08 sec, wall time      0.05 sec, GPU time     47.99 ms
cycle= 10 E= -224.319896362534  delta_E= -0.000175  |g|= 0.0071  |ddm|=   16
diis-c [-7.23518682e-06  1.36229905e-01  1.00767659e+00  4.50454333e-04
  3.11084946e-05 -3.01487266e-03 -3.43020009e-03 -1.47690604e-02
 -1.23173921e-01]
    CPU time for DIIS                                                    0.00 sec, wall time      0.00 sec, GPU time      0.64 ms
    CPU time for eig                                                     0.00 sec, wall time      0.00 sec, GPU time      4.22 ms
  HOMO = -0.155548903279697  LUMO = -0.024652501714768
163840 grids on Device 0
157696 grids on Device 1
0 - 163840 grids are calculated on Device 0.
mem_info: unallocated=31278.06 MB, used=79.30 MB, free=283.23 MB, free_blocks=32
33094.416896 MB memory is available on Device 0, block_size None
163840 - 321536 grids are calculated on Device 1.
mem_info: unallocated=31290.06 MB, used=49.83 MB, free=241.30 MB, free_blocks=15
33063.028736 MB memory is available on Device 1, block_size None
    CPU time for eval rho on Device 0                                    0.01 sec, wall time      0.01 sec, GPU time     11.60 ms
    CPU time for eval rho on Device 1                                    0.01 sec, wall time      0.01 sec, GPU time     12.57 ms
    CPU time for eval vxc on Device 0                                    0.01 sec, wall time      0.00 sec, GPU time      1.66 ms
0 - 163840 grids are calculated on Device 0.
mem_info: unallocated=31214.06 MB, used=98.58 MB, free=263.95 MB, free_blocks=31
33007.089152 MB memory is available on Device 0, block_size None
    CPU time for eval vxc on Device 1                                    0.01 sec, wall time      0.00 sec, GPU time      0.78 ms
163840 - 321536 grids are calculated on Device 1.
mem_info: unallocated=31226.06 MB, used=69.23 MB, free=221.91 MB, free_blocks=17
32975.586304 MB memory is available on Device 1, block_size None
    CPU time for eval integration on 0                                   0.01 sec, wall time      0.00 sec, GPU time     20.27 ms
    CPU time for eval integration on 1                                   0.01 sec, wall time      0.00 sec, GPU time     23.77 ms
    CPU time for nr_rks                                                  0.07 sec, wall time      0.04 sec, GPU time     38.74 ms
nelec by numeric integration = 62.00004688012694
    CPU time for vxc                                                     0.07 sec, wall time      0.04 sec, GPU time     38.80 ms
30.230 GB memory available on Device 0, block size = 256
33.074 GB memory available on Device 1, block size = 256
    CPU time for vj and vk on Device 0                                   0.00 sec, wall time      0.00 sec, GPU time      3.09 ms
    CPU time for vj and vk on Device 1                                   0.00 sec, wall time      0.00 sec, GPU time      3.00 ms
    CPU time for vj and vk                                               0.01 sec, wall time      0.00 sec, GPU time      4.33 ms
    CPU time for veff                                                    0.01 sec, wall time      0.00 sec, GPU time      4.61 ms
    CPU time for veff                                                    0.08 sec, wall time      0.05 sec, GPU time     43.79 ms
E1 = -2565.836171385182  Ecoul = 1174.5365353486618  Exc = -69.41933082918285
    CPU time for cycle=11                                                0.08 sec, wall time      0.05 sec, GPU time     49.01 ms
cycle= 11 E= -224.319923132421  delta_E= -2.68e-05  |g|= 0.00266  |ddm|=    7
diis-c [-1.27924977e-06 -8.17846478e-02  1.62116496e-01  9.57262101e-01
  3.00836010e-04 -9.74031845e-04  4.50884098e-04 -3.29987691e-03
 -3.40717607e-02]
    CPU time for DIIS                                                    0.00 sec, wall time      0.00 sec, GPU time      0.66 ms
    CPU time for eig                                                     0.00 sec, wall time      0.00 sec, GPU time      4.21 ms
  HOMO = -0.15555648077069  LUMO = -0.0247249382909448
163840 grids on Device 0
157696 grids on Device 1
0 - 163840 grids are calculated on Device 0.
163840 - 321536 grids are calculated on Device 1.
mem_info: unallocated=31278.06 MB, used=79.30 MB, free=283.23 MB, free_blocks=33
mem_info: unallocated=31290.06 MB, used=49.83 MB, free=241.30 MB, free_blocks=15
33094.416896 MB memory is available on Device 0, block_size None
33063.028736 MB memory is available on Device 1, block_size None
    CPU time for eval rho on Device 0                                    0.01 sec, wall time      0.01 sec, GPU time     12.23 ms
    CPU time for eval rho on Device 1                                    0.01 sec, wall time      0.01 sec, GPU time     12.92 ms
    CPU time for eval vxc on Device 0                                    0.01 sec, wall time      0.00 sec, GPU time      1.48 ms
0 - 163840 grids are calculated on Device 0.
mem_info: unallocated=31214.06 MB, used=98.58 MB, free=263.95 MB, free_blocks=31
33007.089152 MB memory is available on Device 0, block_size None
    CPU time for eval vxc on Device 1                                    0.01 sec, wall time      0.00 sec, GPU time      0.77 ms
163840 - 321536 grids are calculated on Device 1.
mem_info: unallocated=31226.06 MB, used=69.23 MB, free=221.91 MB, free_blocks=17
32975.586304 MB memory is available on Device 1, block_size None
    CPU time for eval integration on 0                                   0.01 sec, wall time      0.00 sec, GPU time     19.13 ms
    CPU time for eval integration on 1                                   0.01 sec, wall time      0.00 sec, GPU time     23.06 ms
    CPU time for nr_rks                                                  0.07 sec, wall time      0.04 sec, GPU time     38.50 ms
nelec by numeric integration = 62.00004692967544
    CPU time for vxc                                                     0.07 sec, wall time      0.04 sec, GPU time     38.57 ms
33.074 GB memory available on Device 1, block size = 256
30.230 GB memory available on Device 0, block size = 256
    CPU time for vj and vk on Device 1                                   0.00 sec, wall time      0.00 sec, GPU time      3.19 ms
    CPU time for vj and vk on Device 0                                   0.00 sec, wall time      0.00 sec, GPU time      3.58 ms
    CPU time for vj and vk                                               0.01 sec, wall time      0.00 sec, GPU time      4.74 ms
    CPU time for veff                                                    0.01 sec, wall time      0.01 sec, GPU time      5.02 ms
    CPU time for veff                                                    0.08 sec, wall time      0.05 sec, GPU time     43.97 ms
E1 = -2565.8407910653077  Ecoul = 1174.5415181315175  Exc = -69.41969798797001
    CPU time for cycle=12                                                0.08 sec, wall time      0.05 sec, GPU time     49.20 ms
cycle= 12 E= -224.319927188478  delta_E= -4.06e-06  |g|= 0.00116  |ddm|= 3.46
diis-c [-2.49189978e-07 -4.94093195e-02 -4.70831253e-02  4.57219397e-01
  6.38635822e-01 -1.94656821e-04  8.26322591e-04  3.50671205e-03
 -3.50115173e-03]
    CPU time for DIIS                                                    0.00 sec, wall time      0.00 sec, GPU time      0.64 ms
    CPU time for eig                                                     0.00 sec, wall time      0.00 sec, GPU time      4.22 ms
  HOMO = -0.15560855335804  LUMO = -0.0247210305004243
163840 grids on Device 0
157696 grids on Device 1
163840 - 321536 grids are calculated on Device 1.
0 - 163840 grids are calculated on Device 0.
mem_info: unallocated=31290.06 MB, used=49.83 MB, free=241.30 MB, free_blocks=15
mem_info: unallocated=31278.06 MB, used=79.30 MB, free=283.23 MB, free_blocks=32
33063.028736 MB memory is available on Device 1, block_size None
33094.416896 MB memory is available on Device 0, block_size None
    CPU time for eval rho on Device 0                                    0.01 sec, wall time      0.01 sec, GPU time     12.27 ms
    CPU time for eval rho on Device 1                                    0.01 sec, wall time      0.01 sec, GPU time     12.81 ms
    CPU time for eval vxc on Device 0                                    0.01 sec, wall time      0.00 sec, GPU time      1.40 ms
0 - 163840 grids are calculated on Device 0.
mem_info: unallocated=31214.06 MB, used=98.58 MB, free=263.95 MB, free_blocks=31
33007.089152 MB memory is available on Device 0, block_size None
    CPU time for eval vxc on Device 1                                    0.01 sec, wall time      0.00 sec, GPU time      0.78 ms
163840 - 321536 grids are calculated on Device 1.
mem_info: unallocated=31226.06 MB, used=69.23 MB, free=221.91 MB, free_blocks=17
32975.586304 MB memory is available on Device 1, block_size None
    CPU time for eval integration on 0                                   0.01 sec, wall time      0.00 sec, GPU time     21.37 ms
    CPU time for eval integration on 1                                   0.01 sec, wall time      0.00 sec, GPU time     24.84 ms
    CPU time for nr_rks                                                  0.07 sec, wall time      0.04 sec, GPU time     40.24 ms
nelec by numeric integration = 62.000046943946515
    CPU time for vxc                                                     0.07 sec, wall time      0.04 sec, GPU time     40.31 ms
33.074 GB memory available on Device 1, block size = 256
30.230 GB memory available on Device 0, block size = 256
    CPU time for vj and vk on Device 1                                   0.00 sec, wall time      0.00 sec, GPU time      3.23 ms
    CPU time for vj and vk on Device 0                                   0.00 sec, wall time      0.00 sec, GPU time      3.64 ms
    CPU time for vj and vk                                               0.01 sec, wall time      0.00 sec, GPU time      4.80 ms
    CPU time for veff                                                    0.01 sec, wall time      0.01 sec, GPU time      5.07 ms
    CPU time for veff                                                    0.08 sec, wall time      0.05 sec, GPU time     45.77 ms
E1 = -2565.843518772931  Ecoul = 1174.544418434095  Exc = -69.41987094019635
    CPU time for cycle=13                                                0.08 sec, wall time      0.05 sec, GPU time     50.99 ms
cycle= 13 E= -224.31992754575  delta_E= -3.57e-07  |g|= 0.000489  |ddm|= 0.672
diis-c [-1.50053369e-08 -2.00090778e-02 -4.50139659e-02  6.53513623e-02
  2.40712689e-01  7.56657548e-01  5.28779578e-04  1.45060441e-03
  3.22060970e-04]
    CPU time for DIIS                                                    0.00 sec, wall time      0.00 sec, GPU time      0.64 ms
    CPU time for eig                                                     0.00 sec, wall time      0.00 sec, GPU time      4.22 ms
  HOMO = -0.155633254476683  LUMO = -0.0247642967207377
163840 grids on Device 0
157696 grids on Device 1
163840 - 321536 grids are calculated on Device 1.
mem_info: unallocated=31290.06 MB, used=49.83 MB, free=241.30 MB, free_blocks=15
33063.028736 MB memory is available on Device 1, block_size None
0 - 163840 grids are calculated on Device 0.
mem_info: unallocated=31278.06 MB, used=79.30 MB, free=283.23 MB, free_blocks=32
33094.416896 MB memory is available on Device 0, block_size None
    CPU time for eval rho on Device 0                                    0.01 sec, wall time      0.01 sec, GPU time     12.26 ms
    CPU time for eval rho on Device 1                                    0.02 sec, wall time      0.01 sec, GPU time     12.83 ms
    CPU time for eval vxc on Device 0                                    0.01 sec, wall time      0.00 sec, GPU time      1.37 ms
0 - 163840 grids are calculated on Device 0.
mem_info: unallocated=31214.06 MB, used=98.58 MB, free=263.95 MB, free_blocks=31
33007.089152 MB memory is available on Device 0, block_size None
    CPU time for eval vxc on Device 1                                    0.01 sec, wall time      0.00 sec, GPU time      0.79 ms
163840 - 321536 grids are calculated on Device 1.
mem_info: unallocated=31226.06 MB, used=69.23 MB, free=221.91 MB, free_blocks=17
32975.586304 MB memory is available on Device 1, block_size None
    CPU time for eval integration on 0                                   0.01 sec, wall time      0.00 sec, GPU time     19.06 ms
    CPU time for eval integration on 1                                   0.01 sec, wall time      0.00 sec, GPU time     22.58 ms
    CPU time for nr_rks                                                  0.07 sec, wall time      0.04 sec, GPU time     37.95 ms
nelec by numeric integration = 62.000046954241036
    CPU time for vxc                                                     0.07 sec, wall time      0.04 sec, GPU time     38.03 ms
30.230 GB memory available on Device 0, block size = 256
33.074 GB memory available on Device 1, block size = 256
    CPU time for vj and vk on Device 0                                   0.00 sec, wall time      0.00 sec, GPU time      3.32 ms
    CPU time for vj and vk on Device 1                                   0.00 sec, wall time      0.00 sec, GPU time      3.20 ms
    CPU time for vj and vk                                               0.01 sec, wall time      0.00 sec, GPU time      4.52 ms
    CPU time for veff                                                    0.01 sec, wall time      0.01 sec, GPU time      5.00 ms
    CPU time for veff                                                    0.08 sec, wall time      0.05 sec, GPU time     43.42 ms
E1 = -2565.847502344135  Ecoul = 1174.5486174022963  Exc = -69.42008642240427
    CPU time for cycle=14                                                0.08 sec, wall time      0.05 sec, GPU time     48.66 ms
cycle= 14 E= -224.319927630961  delta_E= -8.52e-08  |g|= 6.9e-05  |ddm|= 0.426
diis-c [-1.81651163e-09 -6.52617053e-04 -1.06778410e-02 -6.99581550e-03
 -3.53119166e-03  1.36795903e-01  8.84329885e-01  1.74232697e-04
  5.57443908e-04]
    CPU time for DIIS                                                    0.00 sec, wall time      0.00 sec, GPU time      0.65 ms
    CPU time for eig                                                     0.00 sec, wall time      0.00 sec, GPU time      4.22 ms
  HOMO = -0.155640550437367  LUMO = -0.0247703951449157
163840 grids on Device 0
157696 grids on Device 1
0 - 163840 grids are calculated on Device 0.
mem_info: unallocated=31278.06 MB, used=79.30 MB, free=283.23 MB, free_blocks=31
33094.416896 MB memory is available on Device 0, block_size None
163840 - 321536 grids are calculated on Device 1.
mem_info: unallocated=31290.06 MB, used=49.83 MB, free=241.30 MB, free_blocks=15
33063.028736 MB memory is available on Device 1, block_size None
    CPU time for eval rho on Device 0                                    0.01 sec, wall time      0.01 sec, GPU time     12.06 ms
    CPU time for eval rho on Device 1                                    0.01 sec, wall time      0.01 sec, GPU time     12.90 ms
    CPU time for eval vxc on Device 0                                    0.01 sec, wall time      0.00 sec, GPU time      1.62 ms
0 - 163840 grids are calculated on Device 0.
mem_info: unallocated=31214.06 MB, used=98.58 MB, free=263.95 MB, free_blocks=30
33007.089152 MB memory is available on Device 0, block_size None
    CPU time for eval vxc on Device 1                                    0.01 sec, wall time      0.00 sec, GPU time      0.78 ms
163840 - 321536 grids are calculated on Device 1.
mem_info: unallocated=31226.06 MB, used=69.23 MB, free=221.91 MB, free_blocks=17
32975.586304 MB memory is available on Device 1, block_size None
    CPU time for eval integration on 0                                   0.01 sec, wall time      0.00 sec, GPU time     20.66 ms
    CPU time for eval integration on 1                                   0.01 sec, wall time      0.00 sec, GPU time     23.69 ms
    CPU time for nr_rks                                                  0.07 sec, wall time      0.04 sec, GPU time     39.12 ms
nelec by numeric integration = 62.00004695651141
    CPU time for vxc                                                     0.07 sec, wall time      0.04 sec, GPU time     39.19 ms
30.230 GB memory available on Device 0, block size = 256
33.074 GB memory available on Device 1, block size = 256
    CPU time for vj and vk on Device 1                                   0.00 sec, wall time      0.00 sec, GPU time      3.08 ms
    CPU time for vj and vk on Device 0                                   0.00 sec, wall time      0.00 sec, GPU time      3.47 ms
    CPU time for vj and vk                                               0.01 sec, wall time      0.00 sec, GPU time      4.74 ms
    CPU time for veff                                                    0.01 sec, wall time      0.01 sec, GPU time      5.02 ms
    CPU time for veff                                                    0.08 sec, wall time      0.05 sec, GPU time     44.59 ms
E1 = -2565.8482664153707  Ecoul = 1174.5494185611037  Exc = -69.42012351139847
    CPU time for cycle=15                                                0.08 sec, wall time      0.05 sec, GPU time     49.82 ms
cycle= 15 E= -224.319927632384  delta_E= -1.42e-09  |g|= 5.42e-05  |ddm|= 0.0505
diis-c [-2.90990563e-10  1.67936707e-03 -5.82064645e-04 -3.07617427e-03
 -8.36836618e-03  6.56172978e-03  2.11925521e-01  7.91643827e-01
  2.16160599e-04]
    CPU time for DIIS                                                    0.00 sec, wall time      0.00 sec, GPU time      0.65 ms
    CPU time for eig                                                     0.00 sec, wall time      0.00 sec, GPU time      4.22 ms
  HOMO = -0.155636740343585  LUMO = -0.0247675545992255
163840 grids on Device 0
157696 grids on Device 1
0 - 163840 grids are calculated on Device 0.
mem_info: unallocated=31278.06 MB, used=79.30 MB, free=283.23 MB, free_blocks=32
33094.416896 MB memory is available on Device 0, block_size None
163840 - 321536 grids are calculated on Device 1.
mem_info: unallocated=31290.06 MB, used=49.83 MB, free=241.30 MB, free_blocks=15
33063.028736 MB memory is available on Device 1, block_size None
    CPU time for eval rho on Device 0                                    0.01 sec, wall time      0.01 sec, GPU time     12.11 ms
    CPU time for eval rho on Device 1                                    0.01 sec, wall time      0.01 sec, GPU time     12.93 ms
    CPU time for eval vxc on Device 0                                    0.01 sec, wall time      0.00 sec, GPU time      1.66 ms
0 - 163840 grids are calculated on Device 0.
mem_info: unallocated=31214.06 MB, used=98.58 MB, free=263.95 MB, free_blocks=31
33007.089152 MB memory is available on Device 0, block_size None
    CPU time for eval vxc on Device 1                                    0.01 sec, wall time      0.00 sec, GPU time      0.78 ms
163840 - 321536 grids are calculated on Device 1.
mem_info: unallocated=31226.06 MB, used=69.23 MB, free=221.91 MB, free_blocks=17
32975.586304 MB memory is available on Device 1, block_size None
    CPU time for eval integration on 0                                   0.01 sec, wall time      0.00 sec, GPU time     19.14 ms
    CPU time for eval integration on 1                                   0.01 sec, wall time      0.00 sec, GPU time     22.64 ms
    CPU time for nr_rks                                                  0.07 sec, wall time      0.04 sec, GPU time     38.17 ms
nelec by numeric integration = 62.000046955876925
    CPU time for vxc                                                     0.07 sec, wall time      0.04 sec, GPU time     38.24 ms
30.230 GB memory available on Device 0, block size = 256
33.074 GB memory available on Device 1, block size = 256
    CPU time for vj and vk on Device 1                                   0.00 sec, wall time      0.00 sec, GPU time      3.25 ms
    CPU time for vj and vk on Device 0                                   0.00 sec, wall time      0.00 sec, GPU time      3.41 ms
    CPU time for vj and vk                                               0.01 sec, wall time      0.00 sec, GPU time      4.46 ms
    CPU time for veff                                                    0.01 sec, wall time      0.00 sec, GPU time      4.73 ms
    CPU time for veff                                                    0.08 sec, wall time      0.05 sec, GPU time     43.35 ms
E1 = -2565.8476377330917  Ecoul = 1174.548757493228  Exc = -69.42009112643997
    CPU time for cycle=16                                                0.08 sec, wall time      0.05 sec, GPU time     48.58 ms
cycle= 16 E= -224.319927633022  delta_E= -6.38e-10  |g|= 1.47e-05  |ddm|= 0.0328
diis-c [-6.74106788e-11  1.06776626e-03  1.52813192e-03 -1.71540185e-03
 -7.61644587e-03 -1.61860335e-02  3.16167307e-02  3.12826032e-01
  6.78479220e-01]
    CPU time for DIIS                                                    0.00 sec, wall time      0.00 sec, GPU time      0.64 ms
    CPU time for eig                                                     0.00 sec, wall time      0.00 sec, GPU time      4.22 ms
  HOMO = -0.155636695722916  LUMO = -0.024767323380316
163840 grids on Device 0
157696 grids on Device 1
163840 - 321536 grids are calculated on Device 1.
mem_info: unallocated=31290.06 MB, used=49.83 MB, free=241.30 MB, free_blocks=15
33063.028736 MB memory is available on Device 1, block_size None
0 - 163840 grids are calculated on Device 0.
mem_info: unallocated=31278.06 MB, used=79.30 MB, free=283.23 MB, free_blocks=31
33094.416896 MB memory is available on Device 0, block_size None
    CPU time for eval rho on Device 0                                    0.01 sec, wall time      0.01 sec, GPU time     12.25 ms
    CPU time for eval rho on Device 1                                    0.01 sec, wall time      0.01 sec, GPU time     12.60 ms
    CPU time for eval vxc on Device 0                                    0.01 sec, wall time      0.00 sec, GPU time      1.19 ms
0 - 163840 grids are calculated on Device 0.
mem_info: unallocated=31214.06 MB, used=98.58 MB, free=263.95 MB, free_blocks=30
33007.089152 MB memory is available on Device 0, block_size None
    CPU time for eval vxc on Device 1                                    0.01 sec, wall time      0.00 sec, GPU time      0.79 ms
163840 - 321536 grids are calculated on Device 1.
mem_info: unallocated=31226.06 MB, used=69.23 MB, free=221.91 MB, free_blocks=17
32975.586304 MB memory is available on Device 1, block_size None
    CPU time for eval integration on 0                                   0.01 sec, wall time      0.00 sec, GPU time     21.24 ms
    CPU time for eval integration on 1                                   0.01 sec, wall time      0.00 sec, GPU time     24.74 ms
    CPU time for nr_rks                                                  0.07 sec, wall time      0.04 sec, GPU time     40.02 ms
nelec by numeric integration = 62.00004695598115
    CPU time for vxc                                                     0.07 sec, wall time      0.04 sec, GPU time     40.08 ms
30.230 GB memory available on Device 0, block size = 256
33.074 GB memory available on Device 1, block size = 256
    CPU time for vj and vk on Device 1                                   0.00 sec, wall time      0.00 sec, GPU time      3.19 ms
    CPU time for vj and vk on Device 0                                   0.00 sec, wall time      0.00 sec, GPU time      3.32 ms
    CPU time for vj and vk                                               0.01 sec, wall time      0.00 sec, GPU time      4.55 ms
    CPU time for veff                                                    0.01 sec, wall time      0.01 sec, GPU time      5.03 ms
    CPU time for veff                                                    0.08 sec, wall time      0.05 sec, GPU time     45.51 ms
E1 = -2565.8476798977335  Ecoul = 1174.5488009113988  Exc = -69.42009238003277
    CPU time for cycle=17                                                0.08 sec, wall time      0.05 sec, GPU time     50.93 ms
cycle= 17 E= -224.319927633086  delta_E= -6.39e-11  |g|= 9.96e-06  |ddm|= 0.00621
    CPU time for SCF                                                     3.03 sec, wall time      3.24 sec, GPU time   3242.50 ms
converged SCF energy = -224.319927633086


******** <class 'gpu4pyscf.df.grad.rks.Gradients'> for <class 'gpu4pyscf.df.df_jk.DFRKS'> ********
unit = Eh/Bohr
max_memory 4000 MB (current use 1969 MB)
Number of shells for each [l, nctr] group
    [0 1] : 25
    [0 3] : 7
    [0 5] : 9
    [1 1] : 16
    [1 3] : 9
    [2 1] : 9
    CPU time for Initialize q_cond                                       0.00 sec, wall time      0.00 sec, GPU time      0.85 ms
    CPU time for Get AO pairing                                          0.00 sec, wall time      0.00 sec, GPU time      0.38 ms
    CPU time for AO indices                                              0.00 sec, wall time      0.00 sec, GPU time      0.11 ms
    CPU time for Initialize GPU cache                                    0.00 sec, wall time      0.00 sec, GPU time      1.14 ms
    CPU time for gradients of h1e                                        0.29 sec, wall time      0.03 sec, GPU time     27.51 ms
163840 grids on Device 0
0 - 163840 grids are calculated on Device 0.
mem_info: unallocated=31278.06 MB, used=36.74 MB, free=325.79 MB, free_blocks=32
33139.045376 MB memory is available on Device 0, block_size None
    CPU time for gradient of vxc                                         2.60 sec, wall time      7.98 sec, GPU time   7985.00 ms
157696 grids on Device 1
163840 - 321536 grids are calculated on Device 1.
mem_info: unallocated=31292.06 MB, used=16.49 MB, free=274.64 MB, free_blocks=16
33100.089856 MB memory is available on Device 1, block_size None
    CPU time for gradient of vxc                                         3.36 sec, wall time      9.63 sec, GPU time   9635.01 ms
[...]
      12   H                -0.04  0.01 -0.06   -0.00  0.01 -0.07   -0.09  0.03 -0.15
      13   H                -0.06 -0.12  0.06   -0.01 -0.02  0.01    0.07 -0.16 -0.79
      14   C                 0.00  0.02 -0.01   -0.00 -0.00 -0.03    0.02  0.01  0.09
      15   N                 0.01  0.01  0.03   -0.02 -0.03  0.07    0.01  0.00 -0.00
Mode                                12                  13                  14
Irrep
Freq [cm^-1]                    -9424.3543          -8982.9173          -8776.8009
Reduced mass [au]                   1.4182              1.3290              2.3801
Force const [Dyne/A]              -74.2160            -63.1851           -108.0236
Char temp [K]                       0.0000              0.0000              0.0000
Normal mode                   x     y     z       x     y     z       x     y     z
       0   C                 0.01  0.07  0.02    0.01 -0.05  0.02   -0.01  0.08 -0.02
       1   H                -0.22 -0.70  0.15   -0.09 -0.38  0.09    0.01  0.15 -0.04
       2   C                -0.01  0.01  0.01    0.01  0.03 -0.00   -0.01 -0.03  0.01
       3   H                -0.02 -0.05  0.06    0.04  0.05 -0.01   -0.05 -0.09  0.03
       4   C                -0.02 -0.00  0.02    0.05  0.03  0.02   -0.08 -0.03 -0.00
       5   H                 0.10  0.22 -0.08   -0.34 -0.66  0.09   -0.20 -0.51  0.06
       6   C                 0.01  0.03 -0.01   -0.05 -0.02 -0.00    0.07  0.06  0.01
       7   H                -0.07 -0.02 -0.07   -0.00 -0.01 -0.01    0.03 -0.07 -0.06
       8   C                -0.02 -0.00  0.02    0.05  0.03  0.02   -0.08 -0.03 -0.00
       9   C                 0.02 -0.03 -0.01   -0.01  0.03 -0.01    0.05  0.01 -0.02
      10   H                 0.01  0.03 -0.00   -0.05 -0.02 -0.01    0.08  0.06  0.01
      11   C                -0.01 -0.05  0.06    0.04  0.04 -0.01   -0.05 -0.08  0.03
      12   H                 0.02 -0.03 -0.04   -0.04  0.02 -0.00    0.04  0.02 -0.04
      13   H                 0.00  0.06  0.16   -0.02  0.01 -0.01    0.05  0.03 -0.00
      14   C                 0.00 -0.01 -0.06   -0.01  0.02 -0.01    0.06  0.03 -0.01
      15   N                 0.03  0.01 -0.06   -0.03 -0.02 -0.03    0.05  0.01  0.02
Mode                                15                  16                  17
Irrep
Freq [cm^-1]                    -8155.1625          -6591.2312          -5602.4246
Reduced mass [au]                   3.5019              1.5224              4.7013
Force const [Dyne/A]             -137.2199            -38.9685            -86.9394
Char temp [K]                       0.0000              0.0000              0.0000
Normal mode                   x     y     z       x     y     z       x     y     z
       0   C                -0.03 -0.06  0.02    0.04 -0.02  0.07   -0.01 -0.09  0.08
       1   H                -0.28 -0.26  0.17    0.04  0.11 -0.05    0.01  0.00 -0.07
       2   C                 0.04 -0.00 -0.04   -0.01  0.01  0.01    0.06  0.04 -0.06
       3   H                -0.02  0.06 -0.08    0.04 -0.00  0.07    0.02  0.04  0.04
       4   C                -0.04 -0.01 -0.06   -0.01  0.01 -0.03   -0.07  0.02 -0.03
       5   H                 0.08 -0.02  0.05    0.06 -0.01  0.04   -0.02  0.04 -0.02
       6   C                 0.06  0.00  0.01   -0.01  0.01 -0.02    0.04  0.08  0.03
       7   H                -0.11  0.02 -0.09   -0.54  0.10 -0.52    0.23 -0.09  0.24
       8   C                -0.03 -0.01 -0.06   -0.01  0.01 -0.03   -0.07  0.02 -0.02
       9   C                 0.04 -0.02 -0.02    0.03  0.02 -0.05   -0.00  0.03  0.01
      10   H                 0.06  0.01  0.01   -0.00  0.01 -0.02    0.05  0.08  0.04
      11   C                -0.02  0.06 -0.08    0.04 -0.00  0.07    0.02  0.04  0.04
      12   H                 0.04 -0.03 -0.01    0.03  0.03 -0.12   -0.02  0.03 -0.00
      13   H                -0.01  0.01  0.05   -0.02  0.00 -0.10   -0.05 -0.01  0.07
      14   C                -0.00  0.00  0.05   -0.03  0.00  0.07   -0.03 -0.01 -0.02
      15   N                -0.01  0.06  0.14   -0.01 -0.06 -0.03    0.04 -0.12 -0.04
Mode                                18                  19                  20
Irrep
Freq [cm^-1]                    -5017.8674          -4415.5516          -3932.8317
Reduced mass [au]                   5.1730              4.5568              2.7631
Force const [Dyne/A]              -76.7410            -52.3452            -25.1798
Char temp [K]                       0.0000              0.0000              0.0000
Normal mode                   x     y     z       x     y     z       x     y     z
       0   C                 0.06  0.06  0.08   -0.08 -0.01  0.07   -0.00  0.00  0.02
       1   H                 0.01  0.08  0.07    0.02  0.02 -0.05    0.03 -0.01  0.02
       2   C                 0.06 -0.04 -0.08   -0.05 -0.01  0.03    0.09  0.02 -0.07
       3   H                 0.02 -0.04  0.11   -0.04  0.14  0.02   -0.01 -0.02  0.01
       4   C                 0.00 -0.01 -0.04    0.02 -0.08  0.00   -0.01 -0.00 -0.00
       5   H                -0.01 -0.01 -0.05    0.06  0.05 -0.03   -0.11  0.09 -0.03
       6   C                -0.05 -0.06 -0.04    0.03 -0.07 -0.01   -0.01 -0.01 -0.00
       7   H                 0.19 -0.09  0.15    0.12 -0.29 -0.10   -0.11 -0.33 -0.33
       8   C                 0.00 -0.01 -0.04    0.02 -0.08 -0.00   -0.01 -0.00 -0.00
       9   C                 0.04  0.04 -0.04    0.05  0.03 -0.02   -0.12 -0.02  0.09
      10   H                -0.06 -0.06 -0.05    0.03 -0.07 -0.01   -0.01 -0.01 -0.00
      11   C                 0.02 -0.03  0.10   -0.05  0.13  0.03   -0.01 -0.02  0.01
      12   H                 0.02  0.05 -0.09    0.05  0.03 -0.03   -0.09 -0.03  0.11
      13   H                -0.05  0.04  0.07    0.01  0.02  0.02    0.10 -0.03 -0.12
      14   C                -0.04  0.00 -0.04    0.04  0.07 -0.01    0.11  0.07 -0.05
      15   N                -0.08  0.05  0.06    0.01  0.01 -0.06   -0.02 -0.00  0.02
Mode                                21                  22                  23
Irrep
Freq [cm^-1]                    -2531.4406          -1545.4645           1848.9954
Reduced mass [au]                   1.4679              6.2794              5.6325
Force const [Dyne/A]               -5.5423             -8.8366             11.3456
Char temp [K]                       0.0000              0.0000           2660.2927
Normal mode                   x     y     z       x     y     z       x     y     z
       0   C                 0.03 -0.00 -0.05   -0.01  0.01  0.01   -0.03  0.01 -0.00
       1   H                -0.02 -0.03  0.00   -0.03  0.05 -0.03   -0.08 -0.06  0.01
       2   C                -0.02  0.05  0.03    0.01  0.22  0.01   -0.02  0.01 -0.03
       3   H                 0.01 -0.06 -0.03   -0.02 -0.04  0.02   -0.02 -0.00 -0.01
       4   C                 0.01  0.03 -0.01   -0.01 -0.02 -0.03   -0.01 -0.01 -0.01
       5   H                 0.07  0.03  0.09    0.09 -0.06  0.05   -0.05  0.04 -0.02
       6   C                -0.01  0.01 -0.02   -0.05 -0.04 -0.04   -0.02 -0.01 -0.01
       7   H                 0.13 -0.76 -0.10    0.07  0.15  0.12   -0.04  0.07 -0.07
       8   C                 0.01  0.03 -0.01   -0.01 -0.02 -0.03   -0.01 -0.01 -0.01
       9   C                 0.03  0.04 -0.01    0.06 -0.08  0.01    0.06  0.17  0.09
      10   H                -0.01  0.01 -0.02   -0.05 -0.04 -0.04   -0.02 -0.01 -0.02
      11   C                 0.01 -0.06 -0.03   -0.02 -0.03  0.02   -0.02 -0.00 -0.01
      12   H                 0.03  0.03  0.02    0.07 -0.08  0.02    0.04  0.15  0.15
      13   H                -0.11 -0.06  0.13    0.07  0.01  0.04    0.11 -0.11 -0.05
      14   C                -0.06 -0.01  0.09    0.07  0.00  0.04    0.07 -0.16 -0.01
      15   N                 0.00 -0.01  0.00   -0.04 -0.03 -0.00   -0.01  0.00 -0.01
Mode                                24                  25                  26
Irrep
Freq [cm^-1]                     5386.8413           5997.8580           6881.9133
Reduced mass [au]                   8.9926              3.5360              8.8985
Force const [Dyne/A]              153.7467             74.9477            248.3061
Char temp [K]                    7750.4652           8629.5823           9901.5410
Normal mode                   x     y     z       x     y     z       x     y     z
       0   C                -0.09  0.04 -0.01   -0.00 -0.03 -0.03    0.10 -0.07 -0.04
       1   H                 0.12 -0.08 -0.00   -0.07 -0.10  0.02    0.11 -0.06 -0.01
       2   C                 0.17 -0.06  0.15   -0.02 -0.01 -0.03    0.07 -0.00  0.08
       3   H                -0.07 -0.00 -0.01   -0.01 -0.10 -0.03    0.08  0.02 -0.04
       4   C                 0.01  0.03 -0.04    0.01 -0.03 -0.01   -0.09 -0.06  0.02
       5   H                 0.01  0.01  0.01    0.03  0.13  0.09   -0.00  0.04  0.04
       6   C                -0.04 -0.00 -0.04   -0.00 -0.04 -0.01   -0.02  0.00  0.00
       7   H                -0.00  0.03  0.00   -0.07  0.19  0.17   -0.02  0.02  0.04
       8   C                 0.01  0.03 -0.04    0.01 -0.03 -0.01   -0.09 -0.06  0.02
       9   C                 0.01  0.02 -0.01   -0.01  0.12  0.01   -0.00  0.04  0.01
      10   H                -0.05 -0.01 -0.04   -0.00 -0.04 -0.01   -0.01  0.00  0.01
      11   C                -0.07 -0.00 -0.01   -0.01 -0.09 -0.03    0.07  0.02 -0.03
      12   H                 0.01  0.01  0.01   -0.00  0.11  0.06    0.01  0.03  0.02
      13   H                -0.00  0.00  0.00    0.03  0.25  0.11    0.03  0.05  0.03
      14   C                -0.00  0.00  0.00    0.01  0.16  0.04    0.02  0.02  0.02
      15   N                -0.00 -0.04 -0.00    0.02 -0.08  0.02   -0.06  0.09 -0.07
Mode                                27                  28                  29
Irrep
Freq [cm^-1]                     8526.4662           9691.6869          11304.5823
Reduced mass [au]                   2.4325              1.1307              1.0791
Force const [Dyne/A]              104.1953             62.5736             81.2483
Char temp [K]                   12267.6864          13944.1796          16264.7771
Normal mode                   x     y     z       x     y     z       x     y     z
       0   C                -0.01  0.01  0.01   -0.02 -0.02  0.01   -0.01 -0.02  0.01
       1   H                 0.06 -0.02  0.02    0.87 -0.29  0.17   -0.04  0.03 -0.01
       2   C                -0.01 -0.00 -0.00   -0.05  0.02 -0.03    0.00  0.00  0.00
       3   H                -0.01  0.01  0.02   -0.03 -0.02  0.00   -0.02 -0.00  0.02
       4   C                 0.01  0.01 -0.00    0.00  0.00 -0.02    0.01  0.01 -0.00
       5   H                -0.10  0.11  0.42    0.01 -0.00 -0.03   -0.03 -0.02 -0.20
       6   C                 0.00  0.00 -0.00    0.03  0.02  0.01    0.01  0.00 -0.01
       7   H                 0.05  0.01  0.06   -0.03  0.01  0.02   -0.62 -0.30  0.61
       8   C                 0.01  0.01 -0.00    0.00  0.00 -0.02    0.01  0.01 -0.00
       9   C                -0.11  0.02 -0.13    0.01 -0.00  0.01    0.00 -0.00 -0.03
      10   H                 0.00  0.00 -0.00    0.04  0.02  0.01    0.01  0.00 -0.01
      11   C                -0.00  0.01  0.01   -0.03 -0.01  0.00   -0.02 -0.00  0.02
      12   H                -0.11  0.03 -0.16    0.03 -0.00  0.02   -0.00  0.00 -0.03
      13   H                 0.02 -0.01  0.33    0.00  0.00 -0.03    0.01  0.04 -0.15
      14   C                 0.12 -0.07  0.05   -0.01  0.00  0.00    0.04 -0.02  0.00
      15   N                 0.00  0.00  0.01   -0.03  0.01  0.03    0.01  0.03 -0.01
Mode                                30                  31                  32
Irrep
Freq [cm^-1]                    11686.4493          12991.1337          13201.8452
Reduced mass [au]                   1.1375              5.1649              1.2448
Force const [Dyne/A]               91.5346            513.5770            127.8292
Char temp [K]                   16814.1986          18691.3489          18994.5158
Normal mode                   x     y     z       x     y     z       x     y     z
       0   C                -0.01 -0.01  0.01   -0.06 -0.14  0.06   -0.02 -0.04  0.02
       1   H                 0.01  0.00 -0.00   -0.07  0.11 -0.01   -0.01  0.02  0.01
       2   C                 0.00 -0.00 -0.01    0.01  0.00  0.00    0.00 -0.00  0.00
       3   H                -0.00 -0.01  0.01   -0.06 -0.11  0.04   -0.01 -0.03  0.01
       4   C                 0.00  0.00  0.00    0.03  0.04 -0.01    0.01  0.01 -0.00
       5   H                 0.63 -0.21  0.62   -0.19  0.11  0.14    0.55 -0.33 -0.54
       6   C                 0.00  0.00 -0.00    0.03  0.00 -0.03    0.01  0.00 -0.01
       7   H                -0.10 -0.05  0.08    0.09  0.08 -0.08    0.11  0.06 -0.07
       8   C                 0.00  0.00  0.00    0.03  0.04 -0.01    0.01  0.01 -0.00
       9   C                -0.02  0.01  0.03    0.02 -0.01  0.01   -0.08  0.03 -0.02
      10   H                 0.00  0.00 -0.00    0.03  0.01 -0.02    0.01  0.00 -0.01
      11   C                -0.00 -0.00  0.01   -0.05 -0.11  0.03   -0.01 -0.03  0.01
      12   H                -0.01  0.01  0.04    0.02 -0.00  0.00   -0.06  0.04 -0.02
      13   H                 0.01 -0.01 -0.16    0.00  0.01  0.00    0.01  0.01  0.21
      14   C                -0.02  0.00 -0.09   -0.02  0.01 -0.00    0.03 -0.01  0.05
      15   N                 0.00  0.02 -0.01    0.03  0.13 -0.06    0.01  0.03 -0.02
Mode                                33                  34                  35
Irrep
Freq [cm^-1]                    15516.1051          18007.7685          19121.8097
Reduced mass [au]                   5.7423              1.1773              6.1537
Force const [Dyne/A]              814.5257            224.9394           1325.6991
Char temp [K]                   22324.2206          25909.1695          27512.0267
Normal mode                   x     y     z       x     y     z       x     y     z
       0   C                -0.01  0.01 -0.02   -0.04  0.01  0.01    0.17 -0.05 -0.05
       1   H                -0.17  0.08  0.19   -0.02  0.25  0.88   -0.03  0.06  0.21
       2   C                 0.01 -0.00  0.02   -0.00  0.00 -0.00    0.00 -0.00  0.00
       3   H                -0.03 -0.02  0.01    0.05 -0.00 -0.02   -0.18  0.05  0.04
       4   C                 0.06 -0.02 -0.01   -0.01 -0.02 -0.01    0.01  0.00 -0.01
       5   H                 0.01 -0.00  0.00   -0.01  0.01  0.01    0.01 -0.01  0.01
       6   C                 0.13  0.07  0.05   -0.05  0.01 -0.00   -0.02  0.01 -0.00
       7   H                 0.00  0.01  0.00   -0.01 -0.01  0.01    0.02  0.03 -0.02
       8   C                 0.06 -0.02 -0.01   -0.01 -0.02 -0.01    0.01  0.01 -0.01
       9   C                -0.01  0.00  0.00    0.00 -0.01 -0.00   -0.00  0.00  0.01
      10   H                 0.16  0.07  0.07   -0.05  0.01 -0.01   -0.03  0.00 -0.01
      11   C                -0.02 -0.02  0.01    0.05 -0.01 -0.02   -0.19  0.05  0.05
      12   H                -0.01  0.00  0.00    0.01  0.01 -0.00   -0.01  0.00  0.01
      13   H                 0.00  0.00  0.00    0.00 -0.00 -0.01    0.01  0.00  0.01
      14   C                 0.00 -0.00 -0.00    0.00  0.00 -0.00    0.00 -0.00 -0.00
      15   N                -0.18 -0.04 -0.05    0.05 -0.01 -0.04    0.03 -0.02 -0.00
Mode                                36                  37                  38
Irrep
Freq [cm^-1]                    20003.2095          26397.6666          30420.4441
Reduced mass [au]                   6.8715              1.0731              1.0750
Force const [Dyne/A]             1619.9413            440.5815            586.1373
Char temp [K]                   28780.1648          37980.3648          43768.2461
Normal mode                   x     y     z       x     y     z       x     y     z
       0   C                -0.01 -0.01  0.01   -0.00 -0.00 -0.00    0.00 -0.00 -0.00
       1   H                -0.01 -0.03 -0.15   -0.00  0.00  0.00   -0.00 -0.02 -0.01
       2   C                 0.00 -0.00 -0.00    0.00  0.00 -0.00    0.00 -0.00  0.00
       3   H                -0.00 -0.02  0.00   -0.00 -0.00 -0.00   -0.00  0.00 -0.00
       4   C                 0.06 -0.09 -0.05   -0.00  0.00  0.00   -0.00 -0.00 -0.00
       5   H                 0.00  0.00 -0.00    0.01 -0.00 -0.00   -0.01 -0.00  0.00
       6   C                -0.12  0.16  0.08   -0.00 -0.00 -0.00   -0.00 -0.00  0.00
       7   H                 0.00 -0.00 -0.00    0.04  0.02 -0.05    0.00 -0.00  0.00
       8   C                 0.06 -0.09 -0.05   -0.00 -0.00  0.00   -0.00 -0.00  0.00
       9   C                 0.00 -0.00 -0.00    0.01 -0.00  0.02   -0.01 -0.07  0.00
      10   H                -0.13  0.15  0.07   -0.00  0.00  0.00   -0.00 -0.00 -0.00
      11   C                -0.00 -0.02  0.00   -0.00 -0.00 -0.00   -0.00  0.00 -0.00
      12   H                 0.00 -0.00 -0.00    0.00 -0.00  0.01    0.20  0.94  0.02
      13   H                 0.00  0.00  0.00   -0.88  0.36 -0.14   -0.00 -0.01 -0.00
      14   C                 0.00  0.00  0.00    0.07 -0.03 -0.00   -0.00 -0.00 -0.00
      15   N                 0.02  0.03  0.02    0.00 -0.00 -0.00   -0.00 -0.00 -0.00
Mode                                39                  40                  41
Irrep
Freq [cm^-1]                    71954.9512          76749.6713         113392.9819
Reduced mass [au]                   1.0833              1.0856             12.0089
Force const [Dyne/A]             3304.4768           3767.7849          90976.0512
Char temp [K]                  103527.1542         110425.6890         163147.2544
Normal mode                   x     y     z       x     y     z       x     y     z
       0   C                -0.00  0.00 -0.00    0.00  0.00 -0.00   -0.00 -0.00  0.00
       1   H                 0.00  0.00 -0.00    0.00  0.00  0.00   -0.00 -0.00 -0.00
       2   C                -0.00 -0.00  0.00    0.00  0.00 -0.00   -0.00 -0.00 -0.00
       3   H                 0.64 -0.45  0.55    0.02 -0.01  0.02   -0.00  0.00 -0.00
       4   C                 0.00  0.00 -0.00    0.00  0.00  0.00    0.03  0.16 -0.12
       5   H                 0.00  0.00  0.00    0.00  0.00  0.00    0.00  0.00 -0.00
       6   C                -0.00 -0.00  0.00    0.05  0.01 -0.06   -0.00 -0.00  0.00
       7   H                 0.00 -0.00 -0.00   -0.00 -0.00  0.00   -0.00 -0.00 -0.00
       8   C                 0.00 -0.00  0.00    0.00  0.00 -0.00   -0.03 -0.16  0.12
       9   C                -0.00 -0.00  0.00   -0.00  0.00 -0.00   -0.00 -0.00  0.00
      10   H                 0.02  0.00 -0.02   -0.58 -0.19  0.74   -0.00 -0.00  0.00
      11   C                -0.05  0.04 -0.05   -0.00  0.00 -0.00   -0.00 -0.00  0.00
      12   H                -0.00  0.00 -0.00    0.00 -0.00 -0.00    0.00 -0.00 -0.00
      13   H                 0.00  0.00  0.00    0.00 -0.00 -0.00    0.00 -0.00 -0.00
      14   C                 0.00  0.00  0.00   -0.00 -0.00 -0.00    0.00 -0.00  0.00
      15   N                 0.00 -0.00  0.00   -0.00 -0.00  0.00   -0.00 -0.00 -0.00
temperature 298.1500 [K]
pressure 101325.00 [Pa]
Rotational constants [GHz] 19.49930 15.34067 10.70181
Symmetry number 1
Zero-point energy (ZPE) 1.09143 [Eh]   2865548.984 [J/mol]
                           tot       elec      trans        rot        vib
Entropy [J/mol/K]       260.773      0.000    168.154     92.608      0.011
Cv [J/mol/K]             25.032      0.000     12.472     12.472      0.088
Cp [J/mol/K]             33.346      0.000     20.786     12.472      0.088
Internal energy [J/mol]                      3718.434   3718.434 2865551.933
Internal energy [Eh]   -223.22566  -224.31993
Enthalpy [J/mol]                             6197.391   3718.434 2865551.933
Enthalpy [Eh]          -223.22472
Gibbs free energy [J/mol]                  -43937.803 -23892.621 2865548.653
Gibbs free energy [Eh] -223.25433
