#INFO: **** input file is /mmhome/boittier/home/mmml/.venv/bin/mmml ****
#!/mmhome/boittier/home/mmml/.venv/bin/python3
# -*- coding: utf-8 -*-
import sys
from mmml.cli.__main__ import main
if __name__ == "__main__":
    if sys.argv[0].endswith("-script.pyw"):
        sys.argv[0] = sys.argv[0][:-11]
    elif sys.argv[0].endswith(".exe"):
        sys.argv[0] = sys.argv[0][:-4]
    sys.exit(main())
#INFO: ******************** input file end ********************


System: uname_result(system='Linux', node='gpu09', release='5.15.0-118-generic', version='#128-Ubuntu SMP Fri Jul 5 09:28:59 UTC 2024', machine='x86_64')  Threads 32
Python 3.13.12 | packaged by conda-forge | (main, Feb  5 2026, 05:53:46) [GCC 14.3.0]
numpy 2.4.3  scipy 1.17.1  h5py 3.16.0
Date: Tue Apr 21 15:36:06 2026
PySCF version 2.12.1
PySCF path  /mmhome/boittier/home/mmml/.venv/lib/python3.13/site-packages/pyscf/__init__.py
CUDA Environment
    CuPy 14.0.1
    CUDA Path /mmhome/boittier/home/mmml/.venv/lib/python3.13/site-packages/nvidia/cu13
    CUDA Build Version 13000
    CUDA Driver Version 13000
    CUDA Runtime Version 13000
CUDA toolkit
    cuSolver (12, 1, 0)
    cuBLAS 130300
    cuTENSOR None
Device info
    Device name b'NVIDIA GeForce RTX 5090'
    Device global memory 31.36 GB
    CuPy memory fraction 0.9
    Num. Devices 1
GPU4PySCF 1.6.1
GPU4PySCF path  /mmhome/boittier/home/mmml/.venv/lib/python3.13/site-packages/gpu4pyscf

[CONFIG] conf_file None
[INPUT] verbose = 6
[INPUT] max_memory = 4000 
[INPUT] num. atoms = 6
[INPUT] num. electrons = 20
[INPUT] charge = 0
[INPUT] spin (= nelec alpha-beta = 2S) = 0
[INPUT] symmetry False subgroup None
[INPUT] Mole.unit = Ang
[INPUT] Symbol           X                Y                Z      unit          X                Y                Z       unit  Magmom
[INPUT]  1 O     -0.052804240000   0.022992670000   0.048029420000 AA   -0.099785551816   0.043449849173   0.090762449722 Bohr   0.0
[INPUT]  2 H      0.298183760000  -0.868069120000  -0.155726790000 AA    0.563485641193  -1.640412893992  -0.294280983358 Bohr   0.0
[INPUT]  3 H      0.358881100000   0.597429360000  -0.597059090000 AA    0.678186990283   1.128977869174  -1.128278160282 Bohr   0.0
[INPUT]  4 O     -0.040469710000   0.025226340000   3.076288350000 AA   -0.076476668241   0.047670873725   5.813342461690 Bohr   0.0
[INPUT]  5 H     -0.414273560000  -0.859416440000   3.293291560000 AA   -0.782863569049  -1.624061698549   6.223419096742 Bohr   0.0
[INPUT]  6 H     -0.434091930000   0.594150170000   3.706561060000 AA   -0.820314860584   1.122781098164   7.004385267378 Bohr   0.0
[INPUT] ---------------- BASIS SET ---------------- 
[INPUT] l, kappa, [nprim/nctr], expnt,             c_1 c_2 ...
[INPUT] O
[INPUT] 0    0    [5    /1   ]  2266.1767785      -0.0053431809926
                                340.87010191      -0.03989003923
                                77.363135167      -0.17853911985
                                21.47964494       -0.46427684959
                                6.6589433124      -0.44309745172
[INPUT] 0    0    [1    /1   ]  0.80975975668        1
[INPUT] 0    0    [1    /1   ]  0.25530772234        1
[INPUT] 1    0    [3    /1   ]  17.721504317      0.043394573193
                                3.863550544       0.23094120765
                                1.0480920883      0.51375311064
[INPUT] 1    0    [1    /1   ]  0.27641544411        1
[INPUT] 2    0    [1    /1   ]  1.2                  1
[INPUT] H
[INPUT] 0    0    [3    /1   ]  13.010701         0.019682158
                                1.9622572         0.13796524
                                0.44453796        0.47831935
[INPUT] 0    0    [1    /1   ]  0.12194962           1
[INPUT] 1    0    [1    /1   ]  0.8                  1

nuclear repulsion = 34.7501303279497
number of shells = 24
number of NR pGTOs = 76
number of NR cGTOs = 48
basis = def2-SVP
ecp = {}
CPU time:         5.44


******** <class 'gpu4pyscf.df.df_jk.DFRKS'> ********
method = DFRKS
initial guess = minao
damping factor = None
level_shift factor = None
DIIS = <class 'gpu4pyscf.scf.diis.CDIIS'>
diis_start_cycle = 1
diis_space = 8
diis_damp = 0
SCF conv_tol = 1e-10
SCF conv_tol_grad = None
SCF max_cycles = 50
direct_scf = False
XC library gpu4pyscf.dft.libxc version 7.0.0 (CUDA)
    unable to decode the reference due to https://github.com/NVIDIA/cuda-python/issues/29
XC functionals = PBE0
radial grids: 
Treutler-Ahlrichs [JCP 102, 346 (1995); DOI:10.1063/1.469408] (M4) radial grids

becke partition: Becke, JCP 88, 2547 (1988); DOI:10.1063/1.454033
pruning grids: <function nwchem_prune at 0x14b40bd69760>
grids dens level: 3
symmetrized grids: False
atomic radii adjust function: <function treutler_atomic_radii_adjust at 0x14b40bd69800>
User specified grid scheme (99, 590)
small_rho_cutoff = 1e-07
Set gradient conv threshold to 1e-05
    CPU time for generating initial guess                                0.35 sec, wall time      0.22 sec, GPU time    222.15 ms
Number of shells for each [l, nprim] group
    [0 5] : 2
    [0 3] : 4
    [0 1] : 8
    [1 3] : 2
    [1 1] : 6
    [2 1] : 2
sp_blocks = 21, ksh_blocks = 1, shm_size = 59512 B
    CPU time for processing contract_int3c2e_auxvec                      0.00 sec, wall time      0.02 sec, GPU time     24.65 ms
Number of shells for each [l, nprim] group
    [0 5] : 2
    [0 3] : 4
    [0 1] : 8
    [1 3] : 2
    [1 1] : 6
    [2 1] : 2
Number of shells for each [l, nprim] group
    [0 5] : 2
    [0 3] : 4
    [0 1] : 8
    [1 3] : 2
    [1 1] : 6
    [2 1] : 2
    CPU time for hcore                                                   0.05 sec, wall time      0.79 sec, GPU time    789.00 ms
atom O rad-grids = 99, ang-grids = [ 50  50  50  50  50  50  50  50  50  50  50  50  50  50  50  50  50  50
  50  50  50  50  50  50  50  50  50  50  50  50  86  86  86  86  86  86
  86  86  86  86  86  86  86 434 434 434 434 434 434 434 434 590 590 590
 590 590 590 590 590 590 590 590 590 590 590 590 590 590 590 590 590 590
 590 590 590 590 590 590 434 434 434 434 434 434 434 434 434 434 434 434
 434 434 434 434 434 434 434 434 434]
atom H rad-grids = 99, ang-grids = [ 50  50  50  50  50  50  50  50  50  50  50  50  50  50  50  50  50  50
  50  50  50  50  50  50  50  50  50  50  50  50  86  86  86  86  86  86
  86 434 434 434 434 434 434 434 434 434 434 590 590 590 590 590 590 590
 590 590 590 590 590 590 590 590 590 590 590 590 590 590 590 590 590 590
 590 590 434 434 434 434 434 434 434 434 434 434 434 434 434 434 434 434
 434 434 434 434 434 434 434 434 434]
    CPU time for generating atomic grids                                 0.00 sec, wall time      0.02 sec, GPU time     24.03 ms
Padding 172 grids
    CPU time for sorting grids                                           0.02 sec, wall time      0.06 sec, GPU time     60.25 ms
tot grids = 195328
Number of shells for each [l, nctr] group
    [0 1] : 8
    [0 3] : 4
    [0 5] : 2
    [1 1] : 6
    [1 3] : 2
    [2 1] : 2
0 - 195328 grids are calculated on Device 0.
mem_info: unallocated=31498.06 MB, used=9.76 MB, free=14.10 MB, free_blocks=15
33042.8928 MB memory is available on Device 0, block_size None
    CPU time for eval rho                                                0.03 sec, wall time      0.09 sec, GPU time     89.35 ms
Drop grids 17082
prune_by_density_: 186 padding grids
    CPU time for setting up grids                                        0.05 sec, wall time      0.25 sec, GPU time    245.55 ms
178432 grids on Device 0
0 - 178432 grids are calculated on Device 0.
mem_info: unallocated=31710.06 MB, used=15.89 MB, free=17.88 MB, free_blocks=17
33269.163008 MB memory is available on Device 0, block_size None
    CPU time for eval rho on Device 0                                    0.03 sec, wall time      0.04 sec, GPU time     39.24 ms
    CPU time for eval vxc on Device 0                                    0.11 sec, wall time      0.13 sec, GPU time    130.31 ms
0 - 178432 grids are calculated on Device 0.
mem_info: unallocated=31628.06 MB, used=20.57 MB, free=28.73 MB, free_blocks=19
33194.55488 MB memory is available on Device 0, block_size None
    CPU time for eval integration on 0                                   0.01 sec, wall time      0.01 sec, GPU time     10.30 ms
    CPU time for nr_rks                                                  0.15 sec, wall time      0.19 sec, GPU time    189.62 ms
nelec by numeric integration = 19.962376106343918
    CPU time for vxc                                                     0.21 sec, wall time      0.44 sec, GPU time    435.29 ms
Build CDERI ...
Psi4 predefined JKFIT basis set def2-svp-jkfit for HF
Default auxbasis def2-svp-jkfit is applied universally
num shells = 74, num cGTOs = 226
    CPU time for 2c2e                                                    0.01 sec, wall time      0.01 sec, GPU time     10.01 ms
Number of shells for each [l, nctr] group
    [0 1] : 8
    [0 3] : 4
    [0 5] : 2
    [1 1] : 6
    [1 3] : 2
    [2 1] : 2
Number of shells for each [l, nctr] group
    [0 1] : 22
    [0 3] : 4
    [0 5] : 2
    [1 1] : 22
    [1 3] : 2
    [2 1] : 14
    [2 3] : 2
    [3 1] : 4
    [4 1] : 2
    CPU time for Initialize q_cond                                       0.00 sec, wall time      0.00 sec, GPU time      0.95 ms
    CPU time for Get AO pairing                                          0.01 sec, wall time      0.00 sec, GPU time      0.26 ms
    CPU time for AO indices                                              0.00 sec, wall time      0.00 sec, GPU time      0.07 ms
    CPU time for Aux AO indices                                          0.00 sec, wall time      0.00 sec, GPU time      0.10 ms
    CPU time for Get AO pairs                                            0.00 sec, wall time      0.00 sec, GPU time      0.35 ms
    CPU time for prepare intopt                                          0.14 sec, wall time      0.01 sec, GPU time     11.43 ms
size of aux basis 226
Saving CDERI on GPU
CDERI size 0.002 GB on Device 0
    CPU time for Initialize GPU cache on Device 0                        0.00 sec, wall time      0.00 sec, GPU time      0.62 ms
    CPU time for solve 5 / 21 on Device 0                                0.06 sec, wall time      0.07 sec, GPU time     68.87 ms
    CPU time for transfer data for 5 / 21 on Device 0                    0.00 sec, wall time      0.01 sec, GPU time      7.16 ms
    CPU time for solve 4 / 21 on Device 0                                0.00 sec, wall time      0.00 sec, GPU time      1.99 ms
    CPU time for transfer data for 4 / 21 on Device 0                    0.00 sec, wall time      0.00 sec, GPU time      0.03 ms
    CPU time for solve 2 / 21 on Device 0                                0.00 sec, wall time      0.00 sec, GPU time      1.16 ms
    CPU time for transfer data for 2 / 21 on Device 0                    0.00 sec, wall time      0.00 sec, GPU time      0.02 ms
    CPU time for solve 12 / 21 on Device 0                               0.00 sec, wall time      0.00 sec, GPU time      2.45 ms
    CPU time for transfer data for 12 / 21 on Device 0                   0.00 sec, wall time      0.00 sec, GPU time      0.02 ms
    CPU time for solve 3 / 21 on Device 0                                0.00 sec, wall time      0.00 sec, GPU time      1.14 ms
    CPU time for transfer data for 3 / 21 on Device 0                    0.00 sec, wall time      0.00 sec, GPU time      0.02 ms
    CPU time for solve 17 / 21 on Device 0                               0.00 sec, wall time      0.00 sec, GPU time      1.83 ms
    CPU time for transfer data for 17 / 21 on Device 0                   0.00 sec, wall time      0.00 sec, GPU time      0.03 ms
    CPU time for solve 14 / 21 on Device 0                               0.00 sec, wall time      0.00 sec, GPU time      3.29 ms
    CPU time for transfer data for 14 / 21 on Device 0                   0.00 sec, wall time      0.00 sec, GPU time      0.03 ms
    CPU time for solve 11 / 21 on Device 0                               0.00 sec, wall time      0.00 sec, GPU time      1.72 ms
    CPU time for transfer data for 11 / 21 on Device 0                   0.00 sec, wall time      0.00 sec, GPU time      0.02 ms
    CPU time for solve 8 / 21 on Device 0                                0.00 sec, wall time      0.00 sec, GPU time      1.24 ms
    CPU time for transfer data for 8 / 21 on Device 0                    0.00 sec, wall time      0.00 sec, GPU time      0.03 ms
    CPU time for solve 1 / 21 on Device 0                                0.00 sec, wall time      0.00 sec, GPU time      0.77 ms
    CPU time for transfer data for 1 / 21 on Device 0                    0.00 sec, wall time      0.00 sec, GPU time      0.02 ms
    CPU time for solve 0 / 21 on Device 0                                0.00 sec, wall time      0.00 sec, GPU time      0.72 ms
    CPU time for transfer data for 0 / 21 on Device 0                    0.00 sec, wall time      0.00 sec, GPU time      0.02 ms
    CPU time for solve 16 / 21 on Device 0                               0.00 sec, wall time      0.00 sec, GPU time      1.19 ms
    CPU time for transfer data for 16 / 21 on Device 0                   0.00 sec, wall time      0.00 sec, GPU time      0.02 ms
    CPU time for solve 10 / 21 on Device 0                               0.00 sec, wall time      0.00 sec, GPU time      0.91 ms
    CPU time for transfer data for 10 / 21 on Device 0                   0.00 sec, wall time      0.00 sec, GPU time      0.02 ms
    CPU time for solve 20 / 21 on Device 0                               0.00 sec, wall time      0.00 sec, GPU time      1.80 ms
    CPU time for transfer data for 20 / 21 on Device 0                   0.00 sec, wall time      0.00 sec, GPU time      0.03 ms
    CPU time for solve 19 / 21 on Device 0                               0.00 sec, wall time      0.00 sec, GPU time      2.40 ms
    CPU time for transfer data for 19 / 21 on Device 0                   0.00 sec, wall time      0.00 sec, GPU time      0.02 ms
    CPU time for solve 7 / 21 on Device 0                                0.00 sec, wall time      0.00 sec, GPU time      0.99 ms
    CPU time for transfer data for 7 / 21 on Device 0                    0.00 sec, wall time      0.00 sec, GPU time      0.02 ms
    CPU time for solve 15 / 21 on Device 0                               0.00 sec, wall time      0.00 sec, GPU time      0.75 ms
    CPU time for transfer data for 15 / 21 on Device 0                   0.00 sec, wall time      0.00 sec, GPU time      0.02 ms
    CPU time for solve 13 / 21 on Device 0                               0.00 sec, wall time      0.00 sec, GPU time      1.28 ms
    CPU time for transfer data for 13 / 21 on Device 0                   0.00 sec, wall time      0.00 sec, GPU time      0.02 ms
    CPU time for solve 6 / 21 on Device 0                                0.00 sec, wall time      0.00 sec, GPU time      0.66 ms
    CPU time for transfer data for 6 / 21 on Device 0                    0.00 sec, wall time      0.00 sec, GPU time      0.02 ms
    CPU time for solve 9 / 21 on Device 0                                0.00 sec, wall time      0.00 sec, GPU time      0.84 ms
    CPU time for transfer data for 9 / 21 on Device 0                    0.00 sec, wall time      0.00 sec, GPU time      0.02 ms
    CPU time for solve 18 / 21 on Device 0                               0.00 sec, wall time      0.00 sec, GPU time      0.94 ms
    CPU time for transfer data for 18 / 21 on Device 0                   0.00 sec, wall time      0.00 sec, GPU time      0.02 ms
    CPU time for cholesky_eri                                            0.36 sec, wall time      0.15 sec, GPU time    147.58 ms
    CPU time for init jk                                                 0.37 sec, wall time      0.16 sec, GPU time    157.68 ms
30.291 GB memory available on Device 0, block size = 256
    CPU time for vj and vk on Device 0                                   0.00 sec, wall time      0.02 sec, GPU time     24.97 ms
    CPU time for vj and vk                                               0.01 sec, wall time      0.03 sec, GPU time     33.85 ms
    CPU time for veff                                                    0.38 sec, wall time      0.22 sec, GPU time    217.23 ms
E1 = -275.75800527949053  Ecoul = 106.68623503970854  Exc = -18.105943250200163
init E= -152.427583162032
cond(S) = 103.89871207676829
    CPU time for SCF initialization                                      1.00 sec, wall time      1.70 sec, GPU time   1697.34 ms
    CPU time for DIIS                                                    0.00 sec, wall time      0.00 sec, GPU time      0.23 ms
    CPU time for eig                                                     0.00 sec, wall time      0.00 sec, GPU time      1.42 ms
  HOMO = -0.43243258562996  LUMO = -0.000103630389898937
178432 grids on Device 0
0 - 178432 grids are calculated on Device 0.
mem_info: unallocated=31584.06 MB, used=18.75 MB, free=36.55 MB, free_blocks=24
33156.618752 MB memory is available on Device 0, block_size None
    CPU time for eval rho on Device 0                                    0.01 sec, wall time      0.02 sec, GPU time     20.15 ms
    CPU time for eval vxc on Device 0                                    0.00 sec, wall time      0.00 sec, GPU time      0.61 ms
0 - 178432 grids are calculated on Device 0.
mem_info: unallocated=31520.06 MB, used=23.43 MB, free=31.88 MB, free_blocks=22
33084.60544 MB memory is available on Device 0, block_size None
    CPU time for eval integration on 0                                   0.00 sec, wall time      0.00 sec, GPU time      4.59 ms
    CPU time for nr_rks                                                  0.01 sec, wall time      0.03 sec, GPU time     27.20 ms
nelec by numeric integration = 20.00000001756584
    CPU time for vxc                                                     0.01 sec, wall time      0.03 sec, GPU time     27.31 ms
30.291 GB memory available on Device 0, block size = 256
    CPU time for vj and vk on Device 0                                   0.00 sec, wall time      0.00 sec, GPU time      3.20 ms
    CPU time for vj and vk                                               0.00 sec, wall time      0.00 sec, GPU time      4.84 ms
    CPU time for veff                                                    0.01 sec, wall time      0.01 sec, GPU time      5.38 ms
    CPU time for veff                                                    0.02 sec, wall time      0.05 sec, GPU time     52.66 ms
E1 = -283.1564392197124  Ecoul = 115.07380390018373  Exc = -19.047180952853996
    CPU time for cycle=1                                                 0.03 sec, wall time      0.07 sec, GPU time     67.22 ms
cycle= 1 E= -152.379685944433  delta_E= 0.0479  |g|= 0.948  |ddm|= 1.97
diis-c [-0.89847171  1.        ]
    CPU time for DIIS                                                    0.00 sec, wall time      0.01 sec, GPU time     12.51 ms
    CPU time for eig                                                     0.00 sec, wall time      0.00 sec, GPU time      1.34 ms
  HOMO = -0.114343153414325  LUMO = 0.0967757525237047
178432 grids on Device 0
0 - 178432 grids are calculated on Device 0.
mem_info: unallocated=31584.06 MB, used=18.77 MB, free=36.53 MB, free_blocks=22
33156.598272 MB memory is available on Device 0, block_size None
    CPU time for eval rho on Device 0                                    0.01 sec, wall time      0.01 sec, GPU time      6.15 ms
    CPU time for eval vxc on Device 0                                    0.00 sec, wall time      0.00 sec, GPU time      0.55 ms
0 - 178432 grids are calculated on Device 0.
mem_info: unallocated=31520.06 MB, used=23.45 MB, free=31.86 MB, free_blocks=20
33084.58496 MB memory is available on Device 0, block_size None
    CPU time for eval integration on 0                                   0.00 sec, wall time      0.00 sec, GPU time      4.57 ms
    CPU time for nr_rks                                                  0.01 sec, wall time      0.01 sec, GPU time     11.93 ms
nelec by numeric integration = 20.000000014085582
    CPU time for vxc                                                     0.01 sec, wall time      0.01 sec, GPU time     11.99 ms
30.291 GB memory available on Device 0, block size = 256
    CPU time for vj and vk on Device 0                                   0.00 sec, wall time      0.00 sec, GPU time      1.03 ms
    CPU time for vj and vk                                               0.00 sec, wall time      0.00 sec, GPU time      1.84 ms
    CPU time for veff                                                    0.00 sec, wall time      0.00 sec, GPU time      2.11 ms
    CPU time for veff                                                    0.02 sec, wall time      0.02 sec, GPU time     14.64 ms
E1 = -273.6104909894495  Ecoul = 104.45388524667935  Exc = -17.85826368965968
    CPU time for cycle=2                                                 0.02 sec, wall time      0.03 sec, GPU time     28.84 ms
cycle= 2 E= -152.26473910448  delta_E= 0.115  |g|= 1.24  |ddm|= 1.44
diis-c [-0.01387412  0.56663399  0.43336601]
    CPU time for DIIS                                                    0.00 sec, wall time      0.00 sec, GPU time      0.37 ms
    CPU time for eig                                                     0.00 sec, wall time      0.00 sec, GPU time      1.27 ms
  HOMO = -0.289149582389668  LUMO = 0.0607014436109031
178432 grids on Device 0
0 - 178432 grids are calculated on Device 0.
mem_info: unallocated=31584.06 MB, used=18.79 MB, free=36.52 MB, free_blocks=26
33156.578816 MB memory is available on Device 0, block_size None
    CPU time for eval rho on Device 0                                    0.01 sec, wall time      0.01 sec, GPU time      5.92 ms
    CPU time for eval vxc on Device 0                                    0.00 sec, wall time      0.00 sec, GPU time      0.53 ms
0 - 178432 grids are calculated on Device 0.
mem_info: unallocated=31520.06 MB, used=23.47 MB, free=31.84 MB, free_blocks=25
33084.565504 MB memory is available on Device 0, block_size None
    CPU time for eval integration on 0                                   0.00 sec, wall time      0.00 sec, GPU time      4.57 ms
    CPU time for nr_rks                                                  0.01 sec, wall time      0.01 sec, GPU time     11.65 ms
nelec by numeric integration = 20.000000015637664
    CPU time for vxc                                                     0.01 sec, wall time      0.01 sec, GPU time     11.71 ms
30.291 GB memory available on Device 0, block size = 256
    CPU time for vj and vk on Device 0                                   0.00 sec, wall time      0.00 sec, GPU time      1.02 ms
    CPU time for vj and vk                                               0.00 sec, wall time      0.00 sec, GPU time      1.79 ms
    CPU time for veff                                                    0.00 sec, wall time      0.00 sec, GPU time      2.06 ms
    CPU time for veff                                                    0.02 sec, wall time      0.02 sec, GPU time     14.12 ms
E1 = -279.3379129367425  Ecoul = 110.58889476488704  Exc = -18.548790031252018
    CPU time for cycle=3                                                 0.02 sec, wall time      0.02 sec, GPU time     16.11 ms
cycle= 3 E= -152.547677875158  delta_E= -0.283  |g|= 0.0334  |ddm|= 0.858
diis-c [-3.77667111e-04  8.58315547e-02  7.60620721e-02  8.38106373e-01]
    CPU time for DIIS                                                    0.00 sec, wall time      0.00 sec, GPU time      0.38 ms
    CPU time for eig                                                     0.00 sec, wall time      0.00 sec, GPU time      1.27 ms
  HOMO = -0.283874868232204  LUMO = 0.0643151932884626
178432 grids on Device 0
0 - 178432 grids are calculated on Device 0.
mem_info: unallocated=31584.06 MB, used=18.81 MB, free=36.50 MB, free_blocks=23
33156.55936 MB memory is available on Device 0, block_size None
    CPU time for eval rho on Device 0                                    0.01 sec, wall time      0.01 sec, GPU time      5.81 ms
    CPU time for eval vxc on Device 0                                    0.00 sec, wall time      0.00 sec, GPU time      0.53 ms
0 - 178432 grids are calculated on Device 0.
mem_info: unallocated=31520.06 MB, used=23.48 MB, free=31.82 MB, free_blocks=23
33084.546048 MB memory is available on Device 0, block_size None
    CPU time for eval integration on 0                                   0.00 sec, wall time      0.00 sec, GPU time      4.57 ms
    CPU time for nr_rks                                                  0.01 sec, wall time      0.01 sec, GPU time     11.54 ms
nelec by numeric integration = 20.000000015670384
    CPU time for vxc                                                     0.01 sec, wall time      0.01 sec, GPU time     11.60 ms
30.291 GB memory available on Device 0, block size = 256
    CPU time for vj and vk on Device 0                                   0.00 sec, wall time      0.00 sec, GPU time      1.02 ms
    CPU time for vj and vk                                               0.00 sec, wall time      0.00 sec, GPU time      1.77 ms
    CPU time for veff                                                    0.00 sec, wall time      0.00 sec, GPU time      2.04 ms
    CPU time for veff                                                    0.01 sec, wall time      0.01 sec, GPU time     13.98 ms
E1 = -279.2303793472132  Ecoul = 110.46589058612045  Exc = -18.533519894855427
    CPU time for cycle=4                                                 0.02 sec, wall time      0.02 sec, GPU time     15.98 ms
cycle= 4 E= -152.547878327998  delta_E= -0.0002  |g|= 0.00543  |ddm|= 0.0194
diis-c [-7.68028908e-06 -1.40342487e-04  4.57911927e-04  1.30866161e-01
  8.68816270e-01]
    CPU time for DIIS                                                    0.00 sec, wall time      0.00 sec, GPU time      0.40 ms
    CPU time for eig                                                     0.00 sec, wall time      0.00 sec, GPU time      1.27 ms
  HOMO = -0.284247111217639  LUMO = 0.0641790085120985
178432 grids on Device 0
0 - 178432 grids are calculated on Device 0.
mem_info: unallocated=31584.06 MB, used=18.83 MB, free=36.48 MB, free_blocks=26
33156.539904 MB memory is available on Device 0, block_size None
    CPU time for eval rho on Device 0                                    0.01 sec, wall time      0.01 sec, GPU time      5.82 ms
    CPU time for eval vxc on Device 0                                    0.00 sec, wall time      0.00 sec, GPU time      0.52 ms
0 - 178432 grids are calculated on Device 0.
mem_info: unallocated=31520.06 MB, used=23.50 MB, free=31.80 MB, free_blocks=25
33084.526592 MB memory is available on Device 0, block_size None
    CPU time for eval integration on 0                                   0.00 sec, wall time      0.00 sec, GPU time      4.57 ms
    CPU time for nr_rks                                                  0.01 sec, wall time      0.01 sec, GPU time     11.52 ms
nelec by numeric integration = 20.000000015664185
    CPU time for vxc                                                     0.01 sec, wall time      0.01 sec, GPU time     11.60 ms
30.291 GB memory available on Device 0, block size = 256
    CPU time for vj and vk on Device 0                                   0.00 sec, wall time      0.00 sec, GPU time      1.01 ms
    CPU time for vj and vk                                               0.00 sec, wall time      0.00 sec, GPU time      1.76 ms
    CPU time for veff                                                    0.00 sec, wall time      0.00 sec, GPU time      2.02 ms
    CPU time for veff                                                    0.01 sec, wall time      0.01 sec, GPU time     13.97 ms
E1 = -279.2362109406198  Ecoul = 110.47283722291344  Exc = -18.534638822622007
    CPU time for cycle=5                                                 0.02 sec, wall time      0.02 sec, GPU time     15.98 ms
cycle= 5 E= -152.547882212379  delta_E= -3.88e-06  |g|= 0.00259  |ddm|= 0.00429
diis-c [-1.10546446e-06 -1.15232747e-03 -9.99926301e-04  5.15042954e-02
  4.17518480e-01  5.33129478e-01]
    CPU time for DIIS                                                    0.00 sec, wall time      0.00 sec, GPU time      0.43 ms
    CPU time for eig                                                     0.00 sec, wall time      0.00 sec, GPU time      1.27 ms
  HOMO = -0.284300236472104  LUMO = 0.0641558078913357
178432 grids on Device 0
0 - 178432 grids are calculated on Device 0.
mem_info: unallocated=31584.06 MB, used=18.84 MB, free=36.46 MB, free_blocks=27
33156.520448 MB memory is available on Device 0, block_size None
    CPU time for eval rho on Device 0                                    0.01 sec, wall time      0.01 sec, GPU time      5.80 ms
    CPU time for eval vxc on Device 0                                    0.00 sec, wall time      0.00 sec, GPU time      0.52 ms
0 - 178432 grids are calculated on Device 0.
mem_info: unallocated=31520.06 MB, used=23.52 MB, free=31.78 MB, free_blocks=26
33084.507136 MB memory is available on Device 0, block_size None
    CPU time for eval integration on 0                                   0.00 sec, wall time      0.00 sec, GPU time      4.57 ms
    CPU time for nr_rks                                                  0.01 sec, wall time      0.01 sec, GPU time     11.49 ms
nelec by numeric integration = 20.000000015664202
    CPU time for vxc                                                     0.01 sec, wall time      0.01 sec, GPU time     11.56 ms
30.291 GB memory available on Device 0, block size = 256
    CPU time for vj and vk on Device 0                                   0.00 sec, wall time      0.00 sec, GPU time      1.01 ms
    CPU time for vj and vk                                               0.00 sec, wall time      0.00 sec, GPU time      1.76 ms
    CPU time for veff                                                    0.00 sec, wall time      0.00 sec, GPU time      2.02 ms
    CPU time for veff                                                    0.01 sec, wall time      0.01 sec, GPU time     13.92 ms
E1 = -279.2375749579278  Ecoul = 110.4743842342628  Exc = -18.534822960492384
    CPU time for cycle=6                                                 0.02 sec, wall time      0.02 sec, GPU time     15.96 ms
cycle= 6 E= -152.547883356208  delta_E= -1.14e-06  |g|= 0.00058  |ddm|= 0.00187
diis-c [-7.92002789e-09  8.50571108e-06 -2.75871611e-04 -3.65725192e-03
 -2.09144320e-02  1.55568361e-01  8.69270689e-01]
    CPU time for DIIS                                                    0.00 sec, wall time      0.00 sec, GPU time      0.46 ms
    CPU time for eig                                                     0.00 sec, wall time      0.00 sec, GPU time      1.27 ms
  HOMO = -0.284386514935863  LUMO = 0.0641351817081535
178432 grids on Device 0
0 - 178432 grids are calculated on Device 0.
mem_info: unallocated=31584.06 MB, used=18.86 MB, free=36.44 MB, free_blocks=27
33156.500992 MB memory is available on Device 0, block_size None
    CPU time for eval rho on Device 0                                    0.01 sec, wall time      0.01 sec, GPU time      5.87 ms
    CPU time for eval vxc on Device 0                                    0.00 sec, wall time      0.00 sec, GPU time      0.52 ms
0 - 178432 grids are calculated on Device 0.
mem_info: unallocated=31520.06 MB, used=23.54 MB, free=31.76 MB, free_blocks=25
33084.48768 MB memory is available on Device 0, block_size None
    CPU time for eval integration on 0                                   0.00 sec, wall time      0.00 sec, GPU time      4.57 ms
    CPU time for nr_rks                                                  0.01 sec, wall time      0.01 sec, GPU time     11.59 ms
nelec by numeric integration = 20.00000001566482
    CPU time for vxc                                                     0.01 sec, wall time      0.01 sec, GPU time     11.66 ms
30.291 GB memory available on Device 0, block size = 256
    CPU time for vj and vk on Device 0                                   0.00 sec, wall time      0.00 sec, GPU time      1.01 ms
    CPU time for vj and vk                                               0.00 sec, wall time      0.00 sec, GPU time      1.76 ms
    CPU time for veff                                                    0.00 sec, wall time      0.00 sec, GPU time      2.19 ms
    CPU time for veff                                                    0.02 sec, wall time      0.02 sec, GPU time     14.21 ms
E1 = -279.23873529980216  Ecoul = 110.47568885753725  Exc = -18.534967304510623
    CPU time for cycle=7                                                 0.02 sec, wall time      0.02 sec, GPU time     16.59 ms
cycle= 7 E= -152.547883418826  delta_E= -6.26e-08  |g|= 1.62e-05  |ddm|= 0.000395
diis-c [-1.99759805e-10 -2.49078869e-05 -2.61342191e-05 -3.20146010e-04
 -1.13347583e-03  4.06506015e-03  3.04153858e-02  9.67024218e-01]
    CPU time for DIIS                                                    0.00 sec, wall time      0.00 sec, GPU time      0.71 ms
    CPU time for eig                                                     0.00 sec, wall time      0.00 sec, GPU time      1.27 ms
  HOMO = -0.284385442111293  LUMO = 0.0641354437016084
178432 grids on Device 0
0 - 178432 grids are calculated on Device 0.
mem_info: unallocated=31584.06 MB, used=18.88 MB, free=36.42 MB, free_blocks=28
33156.481536 MB memory is available on Device 0, block_size None
    CPU time for eval rho on Device 0                                    0.01 sec, wall time      0.01 sec, GPU time      5.48 ms
    CPU time for eval vxc on Device 0                                    0.00 sec, wall time      0.00 sec, GPU time      0.53 ms
0 - 178432 grids are calculated on Device 0.
mem_info: unallocated=31520.06 MB, used=23.56 MB, free=31.75 MB, free_blocks=27
33084.468224 MB memory is available on Device 0, block_size None
    CPU time for eval integration on 0                                   0.00 sec, wall time      0.00 sec, GPU time      4.57 ms
    CPU time for nr_rks                                                  0.01 sec, wall time      0.01 sec, GPU time     11.17 ms
nelec by numeric integration = 20.000000015664803
    CPU time for vxc                                                     0.01 sec, wall time      0.01 sec, GPU time     11.23 ms
30.291 GB memory available on Device 0, block size = 256
    CPU time for vj and vk on Device 0                                   0.00 sec, wall time      0.00 sec, GPU time      1.01 ms
    CPU time for vj and vk                                               0.00 sec, wall time      0.00 sec, GPU time      1.75 ms
    CPU time for veff                                                    0.00 sec, wall time      0.00 sec, GPU time      2.00 ms
    CPU time for veff                                                    0.01 sec, wall time      0.01 sec, GPU time     13.57 ms
E1 = -279.23872304175643  Ecoul = 110.47567570075584  Exc = -18.53496640585049
    CPU time for cycle=8                                                 0.02 sec, wall time      0.02 sec, GPU time     15.89 ms
cycle= 8 E= -152.547883418901  delta_E= -7.55e-11  |g|= 4.82e-06  |ddm|= 2.18e-05
    CPU time for SCF                                                     1.14 sec, wall time      1.90 sec, GPU time   1899.91 ms
converged SCF energy = -152.547883418901


******** <class 'gpu4pyscf.df.grad.rks.Gradients'> for <class 'gpu4pyscf.df.df_jk.DFRKS'> ********
unit = Eh/Bohr
max_memory 4000 MB (current use 1855 MB)
Number of shells for each [l, nctr] group
    [0 1] : 8
    [0 3] : 4
    [0 5] : 2
    [1 1] : 6
    [1 3] : 2
    [2 1] : 2
    CPU time for Initialize q_cond                                       0.00 sec, wall time      0.00 sec, GPU time      0.88 ms
    CPU time for Get AO pairing                                          0.01 sec, wall time      0.00 sec, GPU time      0.37 ms
    CPU time for AO indices                                              0.00 sec, wall time      0.00 sec, GPU time      0.08 ms
    CPU time for Initialize GPU cache                                    0.00 sec, wall time      0.00 sec, GPU time      0.20 ms
    CPU time for gradients of h1e                                        0.26 sec, wall time      0.02 sec, GPU time     15.82 ms
178432 grids on Device 0
0 - 178432 grids are calculated on Device 0.
mem_info: unallocated=31584.06 MB, used=12.68 MB, free=42.62 MB, free_blocks=24
33162.979328 MB memory is available on Device 0, block_size None
    CPU time for gradient of vxc                                         0.07 sec, wall time      0.12 sec, GPU time    120.22 ms
    CPU time for grad vxc                                                0.07 sec, wall time      0.12 sec, GPU time    120.99 ms
    CPU time for vxc total                                               0.14 sec, wall time      0.12 sec, GPU time    121.17 ms
Number of shells for each [l, nprim] group
    [0 5] : 2
    [0 3] : 4
    [0 1] : 8
    [1 3] : 2
    [1 1] : 6
    [2 1] : 2
Number of shells for each [l, nprim] group
    [0 5] : 2
    [0 3] : 4
    [0 1] : 22
    [1 3] : 2
    [1 1] : 22
    [2 3] : 2
    [2 1] : 14
    [3 1] : 4
    [4 1] : 2
dm_factor shape (50, 10)
sp_batches = 1, ksh_batches = 9
33.102 GB free memory. nao_pair=1322 naux=266 batch_size=266 blksize=266
    CPU time for contract dm                                             0.01 sec, wall time      0.11 sec, GPU time    108.72 ms
int2c2e_kernel, nimgs = 1
    CPU time for contract int3c2e_ejk_ip1                                0.02 sec, wall time      0.07 sec, GPU time     85.72 ms
int2c2e_kernel, nimgs = 1
    CPU time for contract int2c2e_ip1                                    0.02 sec, wall time      0.02 sec, GPU time      4.44 ms
    CPU time for gradients of veff                                       0.20 sec, wall time      0.33 sec, GPU time    326.32 ms
Computing Gradients of NR-HF Coulomb repulsion
    CPU time for gradients of 2e part                                    0.20 sec, wall time      0.33 sec, GPU time    326.36 ms
    CPU time for gradients of electronic part                            0.46 sec, wall time      0.34 sec, GPU time    342.77 ms
    CPU time for SCF gradients                                           0.46 sec, wall time      0.34 sec, GPU time    343.01 ms
--------------- DFRKS gradients ---------------
         x                y                z
0 O     0.0006942155     0.0181903705     0.0005919423
1 H     0.0040701276    -0.0170692629    -0.0024834824
2 H    -0.0041712672    -0.0011549209     0.0045130461
3 O    -0.0072409015     0.0383103870     0.0130536090
4 H    -0.0071787545    -0.0205577382     0.0049421977
5 H     0.0138266667    -0.0177184833    -0.0206174790
----------------------------------------------


******** <class 'gpu4pyscf.df.hessian.rks.Hessian'> for <class 'gpu4pyscf.df.df_jk.DFRKS'> ********
Max_memory 4000 MB (current use 1889 MB)
Partial Hessian with density fitting approximation
Memory available 28.21327047329396 GB
Psi4 predefined JKFIT basis set def2-svp-jkfit for HF
Default auxbasis def2-svp-jkfit is applied universally
num shells = 74, num cGTOs = 226
    CPU time for intermediate variables with int2c2e and int2c2e_ip1      0.02 sec, wall time      0.00 sec, GPU time      3.89 ms
Number of shells for each [l, nctr] group
    [0 1] : 8
    [0 3] : 4
    [0 5] : 2
    [1 1] : 6
    [1 3] : 2
    [2 1] : 2
Number of shells for each [l, nctr] group
    [0 1] : 22
    [0 3] : 4
    [0 5] : 2
    [1 1] : 22
    [1 3] : 2
    [2 1] : 14
    [2 3] : 2
    [3 1] : 4
    [4 1] : 2
    CPU time for Initialize q_cond                                       0.04 sec, wall time      0.00 sec, GPU time      4.39 ms
    CPU time for Get AO pairing                                          0.00 sec, wall time      0.00 sec, GPU time      0.24 ms
    CPU time for AO indices                                              0.00 sec, wall time      0.00 sec, GPU time      0.07 ms
    CPU time for Aux AO indices                                          0.00 sec, wall time      0.00 sec, GPU time      0.10 ms
    CPU time for Get AO pairs                                            0.00 sec, wall time      0.00 sec, GPU time      0.32 ms
    CPU time for Initialize GPU cache on Device 0                        0.00 sec, wall time      0.00 sec, GPU time      0.13 ms
    CPU time for int3c2e_vjk on Device 0                                 0.25 sec, wall time      0.06 sec, GPU time     61.32 ms
    CPU time for intermediate variables with int3c2e                     0.49 sec, wall time      0.08 sec, GPU time     81.04 ms
    CPU time for Initialize GPU cache on Device 0                        0.00 sec, wall time      0.00 sec, GPU time      0.20 ms
    CPU time for int3c2e_ipip on Device 0                                1.02 sec, wall time      1.06 sec, GPU time   1060.92 ms
    CPU time for intermediate variables with int3c2e_ipip                1.02 sec, wall time      1.06 sec, GPU time   1061.63 ms
    CPU time for int3c2e_ip2_wjk on Device 0                             0.11 sec, wall time      0.12 sec, GPU time    120.01 ms
    CPU time for intermediate variables with int3c2e_ip2                 0.11 sec, wall time      0.12 sec, GPU time    120.58 ms
    CPU time for int3c2e_ip1_wjk on Device 0                             0.10 sec, wall time      0.10 sec, GPU time     99.89 ms
    CPU time for intermediate variables with int3c2e_ip1                 0.10 sec, wall time      0.10 sec, GPU time    101.38 ms
GPU Memory 28.2 GB available, 37229 aux AOs per block
    CPU time for contract int3c2e_ip1 with int2c_ip1                     0.01 sec, wall time      0.03 sec, GPU time     32.21 ms
    CPU time for contract int3c2e_ip1 with int3c2e_ip1                   0.01 sec, wall time      0.01 sec, GPU time      7.00 ms
    CPU time for intermediate variables with int2c_*                     0.20 sec, wall time      0.02 sec, GPU time     15.99 ms
    CPU time for contract int2c_*                                        0.12 sec, wall time      0.01 sec, GPU time     12.90 ms
Number of shells for each [l, nctr] group
    [0 1] : 8
    [0 3] : 4
    [0 5] : 2
    [1 1] : 6
    [1 3] : 2
    [2 1] : 2
    CPU time for Initialize q_cond                                       0.01 sec, wall time      0.00 sec, GPU time      2.55 ms
    CPU time for Get AO pairing                                          0.00 sec, wall time      0.00 sec, GPU time      0.36 ms
    CPU time for AO indices                                              0.00 sec, wall time      0.00 sec, GPU time      0.08 ms
    CPU time for Initialize GPU cache                                    0.08 sec, wall time      0.00 sec, GPU time      0.20 ms
    CPU time for hess_nuc_elec                                           0.24 sec, wall time      0.07 sec, GPU time     65.50 ms
    CPU time for get_hcore                                               0.02 sec, wall time      0.00 sec, GPU time      0.81 ms
    CPU time for hcore generate                                          0.26 sec, wall time      0.07 sec, GPU time     66.98 ms
    CPU time for hcore contribution                                      0.14 sec, wall time      0.02 sec, GPU time     23.00 ms
    CPU time for RHF partial hessian                                     2.47 sec, wall time      1.53 sec, GPU time   1527.11 ms
    CPU time for computing ej, ek                                        2.47 sec, wall time      1.53 sec, GPU time   1527.62 ms
0 - 178432 grids are calculated on Device 0.
mem_info: unallocated=28430.06 MB, used=11.31 MB, free=28.50 MB, free_blocks=25
29840.96256 MB memory is available on Device 0, block_size None
0 - 178432 grids are calculated on Device 0.
mem_info: unallocated=28306.06 MB, used=40.74 MB, free=55.12 MB, free_blocks=30
29738.85952 MB memory is available on Device 0, block_size None
    CPU time for vxc_deriv2 on Device 0                                  0.36 sec, wall time      0.37 sec, GPU time    368.68 ms
    CPU time for RKS partial hessian                                     2.90 sec, wall time      1.96 sec, GPU time   1961.51 ms
    CPU time for hess elec                                               2.90 sec, wall time      1.96 sec, GPU time   1961.56 ms
Generate JK for RHF partial hessian
GPU memory 28.2 GB available
Psi4 predefined JKFIT basis set def2-svp-jkfit for HF
Default auxbasis def2-svp-jkfit is applied universally
num shells = 74, num cGTOs = 226
GPU Memory 28.2 GB available, 109536 aux AOs per block
Number of shells for each [l, nctr] group
    [0 1] : 8
    [0 3] : 4
    [0 5] : 2
    [1 1] : 6
    [1 3] : 2
    [2 1] : 2
Number of shells for each [l, nctr] group
    [0 1] : 22
    [0 3] : 4
    [0 5] : 2
    [1 1] : 22
    [1 3] : 2
    [2 1] : 14
    [2 3] : 2
    [3 1] : 4
    [4 1] : 2
    CPU time for Initialize q_cond                                       0.00 sec, wall time      0.00 sec, GPU time      0.74 ms
    CPU time for Get AO pairing                                          0.00 sec, wall time      0.00 sec, GPU time      0.22 ms
    CPU time for AO indices                                              0.00 sec, wall time      0.00 sec, GPU time      0.06 ms
    CPU time for Aux AO indices                                          0.00 sec, wall time      0.00 sec, GPU time      0.09 ms
    CPU time for Get AO pairs                                            0.00 sec, wall time      0.00 sec, GPU time      0.32 ms
    CPU time for Initialize GPU cache on Device 0                        0.00 sec, wall time      0.00 sec, GPU time      0.13 ms
    CPU time for Fock matrix due to int3c2e                              0.42 sec, wall time      0.08 sec, GPU time     77.43 ms
    CPU time for Initialize GPU cache on Device 0                        0.00 sec, wall time      0.00 sec, GPU time      0.21 ms
    CPU time for int3c2e_ip2_vjk on Device 0                             0.18 sec, wall time      0.18 sec, GPU time    184.73 ms
    CPU time for Fock matrix due to int3c2e_ip2                          0.19 sec, wall time      0.19 sec, GPU time    186.03 ms
GPU Memory 28.2 GB available, 111680 AOs per block
    CPU time for Fock matrix due to int2c2e_ip1                          0.08 sec, wall time      0.00 sec, GPU time      3.18 ms
    CPU time for int3c2e_ip1_vjk on Device 0                             0.20 sec, wall time      0.14 sec, GPU time    143.29 ms
    CPU time for Fock matrix due to int3c2e_ip1                          0.20 sec, wall time      0.14 sec, GPU time    144.88 ms
Number of shells for each [l, nctr] group
    [0 1] : 8
    [0 3] : 4
    [0 5] : 2
    [1 1] : 6
    [1 3] : 2
    [2 1] : 2
    CPU time for Initialize q_cond                                       0.00 sec, wall time      0.00 sec, GPU time      0.60 ms
    CPU time for Get AO pairing                                          0.00 sec, wall time      0.00 sec, GPU time      0.33 ms
    CPU time for AO indices                                              0.00 sec, wall time      0.00 sec, GPU time      0.07 ms
    CPU time for Aux AO indices                                          0.00 sec, wall time      0.00 sec, GPU time      0.05 ms
    CPU time for Get AO pairs                                            0.00 sec, wall time      0.00 sec, GPU time      0.49 ms
    CPU time for Initialize GPU cache on Device 0                        0.00 sec, wall time      0.00 sec, GPU time      0.11 ms
0 - 178432 grids are calculated on Device 0.
mem_info: unallocated=31110.06 MB, used=38.30 MB, free=1.22 MB, free_blocks=13
32622.539776 MB memory is available on Device 0, block_size None
    CPU time for vxc_deriv1 on Device 0                                  0.26 sec, wall time      0.20 sec, GPU time    195.61 ms
    CPU time for making H1                                               1.40 sec, wall time      0.66 sec, GPU time    656.08 ms
GPU memory 28.2 GB available
54784 atoms in each block CPHF equation
Solving CPHF equation for atoms [0:6]
Secondary grids defined for CPHF in Hessian
atom O rad-grids = 50, ang-grids = [  6   6   6   6   6   6   6   6   6   6   6   6   6   6  38  38  38  38
  38  38  86  86  86  86 194 194 194 194 194 194 194 194 194 194 194 194
 194  86  86  86  86  86  86  86  86  86  86  86  86  86]
atom H rad-grids = 50, ang-grids = [  6   6   6   6   6   6   6   6   6   6   6   6   6   6   6   6   6  38
  38  38  38  38  86  86  86  86  86 194 194 194 194 194 194 194 194 194
 194 194 194 194 194 194  86  86  86  86  86  86  86  86]
    CPU time for generating atomic grids                                 0.00 sec, wall time      0.00 sec, GPU time      0.96 ms
Padding 240 grids
    CPU time for sorting grids                                           0.00 sec, wall time      0.00 sec, GPU time      0.37 ms
tot grids = 26112
0 - 26112 grids are calculated on Device 0.
mem_info: unallocated=31206.06 MB, used=9.77 MB, free=2.38 MB, free_blocks=15
32724.42624 MB memory is available on Device 0, block_size None
    CPU time for eval rho in fxc                                         0.02 sec, wall time      0.03 sec, GPU time     29.51 ms
    CPU time for eval fxc                                                0.00 sec, wall time      0.00 sec, GPU time      0.61 ms
26112 grids on Device 0
0 - 26112 grids are calculated on Device 0.
mem_info: unallocated=31192.06 MB, used=17.28 MB, free=9.28 MB, free_blocks=22
32716.97408 MB memory is available on Device 0, block_size None
    CPU time for vxc on Device 0                                         0.02 sec, wall time      0.02 sec, GPU time     24.48 ms
    CPU time for nr_rks_fxc                                              0.02 sec, wall time      0.03 sec, GPU time     25.46 ms
Build CDERI ...
    CPU time for 2c2e                                                    0.00 sec, wall time      0.00 sec, GPU time      0.44 ms
Number of shells for each [l, nctr] group
    [0 1] : 8
    [0 3] : 4
    [0 5] : 2
    [1 1] : 6
    [1 3] : 2
    [2 1] : 2
Number of shells for each [l, nctr] group
    [0 1] : 22
    [0 3] : 4
    [0 5] : 2
    [1 1] : 22
    [1 3] : 2
    [2 1] : 14
    [2 3] : 2
    [3 1] : 4
    [4 1] : 2
    CPU time for Initialize q_cond                                       0.00 sec, wall time      0.00 sec, GPU time      0.86 ms
    CPU time for Get AO pairing                                          0.00 sec, wall time      0.00 sec, GPU time      0.22 ms
    CPU time for AO indices                                              0.00 sec, wall time      0.00 sec, GPU time      0.06 ms
    CPU time for Aux AO indices                                          0.00 sec, wall time      0.00 sec, GPU time      0.09 ms
    CPU time for Get AO pairs                                            0.00 sec, wall time      0.00 sec, GPU time      0.31 ms
    CPU time for prepare intopt                                          0.09 sec, wall time      0.00 sec, GPU time      2.69 ms
size of aux basis 226
Saving CDERI on GPU
CDERI size 0.002 GB on Device 0
    CPU time for Initialize GPU cache on Device 0                        0.00 sec, wall time      0.00 sec, GPU time      0.13 ms
    CPU time for solve 5 / 21 on Device 0                                0.10 sec, wall time      0.00 sec, GPU time      2.64 ms
    CPU time for transfer data for 5 / 21 on Device 0                    0.00 sec, wall time      0.00 sec, GPU time      0.03 ms
    CPU time for solve 4 / 21 on Device 0                                0.00 sec, wall time      0.00 sec, GPU time      1.64 ms
    CPU time for transfer data for 4 / 21 on Device 0                    0.00 sec, wall time      0.00 sec, GPU time      0.02 ms
    CPU time for solve 2 / 21 on Device 0                                0.00 sec, wall time      0.00 sec, GPU time      1.12 ms
    CPU time for transfer data for 2 / 21 on Device 0                    0.00 sec, wall time      0.00 sec, GPU time      0.02 ms
    CPU time for solve 12 / 21 on Device 0                               0.00 sec, wall time      0.00 sec, GPU time      2.29 ms
    CPU time for transfer data for 12 / 21 on Device 0                   0.00 sec, wall time      0.00 sec, GPU time      0.02 ms
    CPU time for solve 3 / 21 on Device 0                                0.00 sec, wall time      0.00 sec, GPU time      0.81 ms
    CPU time for transfer data for 3 / 21 on Device 0                    0.00 sec, wall time      0.00 sec, GPU time      0.02 ms
    CPU time for solve 17 / 21 on Device 0                               0.00 sec, wall time      0.00 sec, GPU time      1.62 ms
    CPU time for transfer data for 17 / 21 on Device 0                   0.00 sec, wall time      0.00 sec, GPU time      0.02 ms
    CPU time for solve 14 / 21 on Device 0                               0.00 sec, wall time      0.00 sec, GPU time      2.61 ms
    CPU time for transfer data for 14 / 21 on Device 0                   0.00 sec, wall time      0.00 sec, GPU time      0.02 ms
    CPU time for solve 11 / 21 on Device 0                               0.00 sec, wall time      0.00 sec, GPU time      1.68 ms
    CPU time for transfer data for 11 / 21 on Device 0                   0.00 sec, wall time      0.00 sec, GPU time      0.02 ms
    CPU time for solve 8 / 21 on Device 0                                0.00 sec, wall time      0.00 sec, GPU time      1.23 ms
    CPU time for transfer data for 8 / 21 on Device 0                    0.00 sec, wall time      0.00 sec, GPU time      0.02 ms
    CPU time for solve 1 / 21 on Device 0                                0.00 sec, wall time      0.00 sec, GPU time      0.74 ms
    CPU time for transfer data for 1 / 21 on Device 0                    0.00 sec, wall time      0.00 sec, GPU time      0.02 ms
    CPU time for solve 0 / 21 on Device 0                                0.00 sec, wall time      0.00 sec, GPU time      0.84 ms
    CPU time for transfer data for 0 / 21 on Device 0                    0.00 sec, wall time      0.00 sec, GPU time      0.02 ms
    CPU time for solve 16 / 21 on Device 0                               0.00 sec, wall time      0.00 sec, GPU time      1.17 ms
    CPU time for transfer data for 16 / 21 on Device 0                   0.00 sec, wall time      0.00 sec, GPU time      0.02 ms
    CPU time for solve 10 / 21 on Device 0                               0.00 sec, wall time      0.00 sec, GPU time      0.89 ms
    CPU time for transfer data for 10 / 21 on Device 0                   0.00 sec, wall time      0.00 sec, GPU time      0.02 ms
    CPU time for solve 20 / 21 on Device 0                               0.00 sec, wall time      0.00 sec, GPU time      0.99 ms
    CPU time for transfer data for 20 / 21 on Device 0                   0.00 sec, wall time      0.00 sec, GPU time      0.02 ms
    CPU time for solve 19 / 21 on Device 0                               0.00 sec, wall time      0.00 sec, GPU time      1.49 ms
    CPU time for transfer data for 19 / 21 on Device 0                   0.00 sec, wall time      0.00 sec, GPU time      0.02 ms
    CPU time for solve 7 / 21 on Device 0                                0.00 sec, wall time      0.00 sec, GPU time      0.94 ms
    CPU time for transfer data for 7 / 21 on Device 0                    0.00 sec, wall time      0.00 sec, GPU time      0.02 ms
    CPU time for solve 15 / 21 on Device 0                               0.00 sec, wall time      0.00 sec, GPU time      0.72 ms
    CPU time for transfer data for 15 / 21 on Device 0                   0.00 sec, wall time      0.00 sec, GPU time      0.02 ms
    CPU time for solve 13 / 21 on Device 0                               0.00 sec, wall time      0.00 sec, GPU time      1.26 ms
    CPU time for transfer data for 13 / 21 on Device 0                   0.00 sec, wall time      0.00 sec, GPU time      0.02 ms
    CPU time for solve 6 / 21 on Device 0                                0.00 sec, wall time      0.00 sec, GPU time      0.63 ms
    CPU time for transfer data for 6 / 21 on Device 0                    0.00 sec, wall time      0.00 sec, GPU time      0.02 ms
    CPU time for solve 9 / 21 on Device 0                                0.00 sec, wall time      0.00 sec, GPU time      0.81 ms
    CPU time for transfer data for 9 / 21 on Device 0                    0.00 sec, wall time      0.00 sec, GPU time      0.02 ms
    CPU time for solve 18 / 21 on Device 0                               0.00 sec, wall time      0.00 sec, GPU time      0.92 ms
    CPU time for transfer data for 18 / 21 on Device 0                   0.00 sec, wall time      0.00 sec, GPU time      0.02 ms
    CPU time for cholesky_eri                                            0.22 sec, wall time      0.03 sec, GPU time     31.12 ms
    CPU time for init jk                                                 0.22 sec, wall time      0.03 sec, GPU time     31.64 ms
30.283 GB memory available on Device 0, block size = 256
    CPU time for vj and vk on Device 0                                   0.00 sec, wall time      0.00 sec, GPU time      3.93 ms
    CPU time for vj and vk                                               0.00 sec, wall time      0.00 sec, GPU time      4.84 ms
krylov cycle 0, r = 7.570e-02, 15 equations
Secondary grids defined for CPHF in Hessian
0 - 26112 grids are calculated on Device 0.
mem_info: unallocated=31164.06 MB, used=12.16 MB, free=38.89 MB, free_blocks=32
32718.663168 MB memory is available on Device 0, block_size None
    CPU time for eval rho in fxc                                         0.00 sec, wall time      0.00 sec, GPU time      1.73 ms
    CPU time for eval fxc                                                0.00 sec, wall time      0.00 sec, GPU time      0.51 ms
26112 grids on Device 0
0 - 26112 grids are calculated on Device 0.
mem_info: unallocated=31164.06 MB, used=19.43 MB, free=31.62 MB, free_blocks=30
32711.041536 MB memory is available on Device 0, block_size None
    CPU time for vxc on Device 0                                         0.01 sec, wall time      0.01 sec, GPU time     11.39 ms
    CPU time for nr_rks_fxc                                              0.01 sec, wall time      0.01 sec, GPU time     12.23 ms
30.284 GB memory available on Device 0, block size = 256
    CPU time for vj and vk on Device 0                                   0.00 sec, wall time      0.00 sec, GPU time      2.87 ms
    CPU time for vj and vk                                               0.00 sec, wall time      0.00 sec, GPU time      3.65 ms
krylov cycle 1, r = 2.020e-02, 12 equations
Secondary grids defined for CPHF in Hessian
0 - 26112 grids are calculated on Device 0.
mem_info: unallocated=31164.06 MB, used=12.10 MB, free=38.95 MB, free_blocks=34
32718.728704 MB memory is available on Device 0, block_size None
    CPU time for eval rho in fxc                                         0.00 sec, wall time      0.00 sec, GPU time      1.71 ms
    CPU time for eval fxc                                                0.00 sec, wall time      0.00 sec, GPU time      0.51 ms
26112 grids on Device 0
0 - 26112 grids are calculated on Device 0.
mem_info: unallocated=31164.06 MB, used=19.14 MB, free=31.91 MB, free_blocks=32
32711.351296 MB memory is available on Device 0, block_size None
    CPU time for vxc on Device 0                                         0.01 sec, wall time      0.01 sec, GPU time      6.86 ms
    CPU time for nr_rks_fxc                                              0.01 sec, wall time      0.01 sec, GPU time      7.67 ms
30.284 GB memory available on Device 0, block size = 256
    CPU time for vj and vk on Device 0                                   0.00 sec, wall time      0.00 sec, GPU time      1.97 ms
    CPU time for vj and vk                                               0.00 sec, wall time      0.00 sec, GPU time      2.72 ms
krylov cycle 2, r = 5.235e-03, 6 equations
krylov space size 36
Secondary grids defined for CPHF in Hessian
0 - 26112 grids are calculated on Device 0.
mem_info: unallocated=31164.06 MB, used=12.17 MB, free=38.88 MB, free_blocks=34
32718.659072 MB memory is available on Device 0, block_size None
    CPU time for eval rho in fxc                                         0.00 sec, wall time      0.00 sec, GPU time      1.72 ms
    CPU time for eval fxc                                                0.00 sec, wall time      0.00 sec, GPU time      0.51 ms
26112 grids on Device 0
0 - 26112 grids are calculated on Device 0.
mem_info: unallocated=31164.06 MB, used=19.67 MB, free=31.38 MB, free_blocks=32
32710.793216 MB memory is available on Device 0, block_size None
    CPU time for vxc on Device 0                                         0.01 sec, wall time      0.01 sec, GPU time     16.41 ms
    CPU time for nr_rks_fxc                                              0.02 sec, wall time      0.02 sec, GPU time     17.23 ms
30.283 GB memory available on Device 0, block size = 256
    CPU time for vj and vk on Device 0                                   0.00 sec, wall time      0.00 sec, GPU time      3.67 ms
    CPU time for vj and vk                                               0.00 sec, wall time      0.00 sec, GPU time      4.29 ms
    CPU time for CPHF solver                                             0.64 sec, wall time      0.32 sec, GPU time    316.98 ms
    CPU time for solving MO1                                             0.64 sec, wall time      0.32 sec, GPU time    317.31 ms
    CPU time for RHF hessian                                             4.95 sec, wall time      2.94 sec, GPU time   2938.08 ms
    CPU time for SCF hessian      4.95 sec, wall time      2.94 sec
Mode                                 0                   1                   2
Irrep
Freq [cm^-1]                     -700.2447           -374.7734           -186.8824
Reduced mass [au]                   1.1134              1.1209              1.0632
Force const [Dyne/A]               -0.3217             -0.0928             -0.0219
Char temp [K]                       0.0000              0.0000              0.0000
Normal mode                   x     y     z       x     y     z       x     y     z
       0   O                 0.01 -0.02  0.00   -0.06 -0.03 -0.04   -0.02 -0.02 -0.02
       1   H                 0.10  0.02 -0.02    0.05  0.01  0.01    0.38  0.15 -0.07
       2   H                -0.07  0.04 -0.00    0.64  0.17  0.59   -0.01  0.30  0.27
       3   O                -0.06  0.03 -0.04    0.02  0.03  0.00   -0.02 -0.04 -0.01
       4   H                 0.09 -0.04 -0.05    0.10 -0.05 -0.17   -0.12  0.13  0.47
       5   H                 0.62 -0.25  0.64   -0.13 -0.17  0.10    0.35  0.43 -0.21
Mode                                 3                   4                   5
Irrep
Freq [cm^-1]                      121.8933            334.5227            509.7558
Reduced mass [au]                   5.7654              1.1047              1.0782
Force const [Dyne/A]                0.0505              0.0728              0.1651
Char temp [K]                     175.3774            481.3036            733.4250
Normal mode                   x     y     z       x     y     z       x     y     z
       0   O                 0.01 -0.00 -0.16   -0.03  0.05 -0.04    0.03  0.01  0.02
       1   H                -0.03 -0.01 -0.19    0.18 -0.04  0.71   -0.45 -0.11 -0.30
       2   H                 0.01  0.00 -0.16    0.28 -0.35 -0.20    0.14 -0.03  0.05
       3   O                -0.00  0.00  0.17   -0.01 -0.02 -0.01   -0.04  0.00 -0.03
       4   H                 0.01 -0.01  0.15    0.21 -0.06  0.25    0.56 -0.12  0.51
       5   H                -0.02 -0.02  0.17    0.07  0.02 -0.00   -0.01  0.03 -0.04
Mode                                 6                   7                   8
Irrep
Freq [cm^-1]                     1617.8378           1633.2127           3625.5228
Reduced mass [au]                   1.0800              1.0818              1.0591
Force const [Dyne/A]                1.6654              1.7001              8.2018
Char temp [K]                    2327.7083           2349.8294           5216.3201
Normal mode                   x     y     z       x     y     z       x     y     z
       0   O                -0.01  0.00  0.02    0.04 -0.01 -0.05   -0.00  0.00  0.00
       1   H                 0.07  0.06 -0.16   -0.37 -0.25  0.51    0.01 -0.04 -0.01
       2   H                 0.12 -0.18 -0.08   -0.30  0.48  0.23    0.00  0.01 -0.01
       3   O                -0.04 -0.01  0.05   -0.01 -0.00  0.01    0.02  0.05 -0.01
       4   H                 0.35 -0.26 -0.54    0.13 -0.09 -0.17   -0.34 -0.88  0.18
       5   H                 0.30  0.46 -0.21    0.08  0.14 -0.07   -0.02  0.09  0.05
Mode                                 9                  10                  11
Irrep
Freq [cm^-1]                     3686.0956           4003.0631           4302.5198
Reduced mass [au]                   1.0564              1.0705              1.0674
Force const [Dyne/A]                8.4573             10.1069             11.6417
Char temp [K]                    5303.4708           5759.5166           6190.3680
Normal mode                   x     y     z       x     y     z       x     y     z
       0   O                 0.02 -0.05 -0.02    0.02  0.05 -0.04   -0.00 -0.00  0.00
       1   H                -0.32  0.88  0.17    0.07 -0.15 -0.05   -0.00 -0.00  0.00
       2   H                -0.06 -0.14  0.11   -0.40 -0.59  0.63    0.00  0.01 -0.01
       3   O                 0.00  0.00 -0.00    0.00 -0.00 -0.00    0.02 -0.04 -0.04
       4   H                -0.02 -0.04  0.01   -0.00 -0.00  0.00    0.04  0.06 -0.03
       5   H                -0.00  0.01  0.00   -0.00  0.01  0.01   -0.40  0.60  0.64
