#INFO: **** input file is /home/ericb/mmml/.venv/bin/mmml ****
#!/home/ericb/mmml/.venv/bin/python3
# -*- coding: utf-8 -*-
import sys
from mmml.cli.__main__ import main
if __name__ == "__main__":
    if sys.argv[0].endswith("-script.pyw"):
        sys.argv[0] = sys.argv[0][:-11]
    elif sys.argv[0].endswith(".exe"):
        sys.argv[0] = sys.argv[0][:-4]
    sys.exit(main())
#INFO: ******************** input file end ********************


System: uname_result(system='Linux', node='nobara-pc', release='7.0.1-200.nobara.fc43.x86_64', version='#1 SMP PREEMPT_DYNAMIC Wed Apr 22 19:53:20 UTC 2026', machine='x86_64')  Threads 24
Python 3.13.11 (main, Jan 28 2026, 00:01:45) [Clang 21.1.4 ]
numpy 2.4.3  scipy 1.17.1  h5py 3.16.0
Date: Tue May  5 20:52:18 2026
PySCF version 2.12.1
PySCF path  /home/ericb/mmml/.venv/lib/python3.13/site-packages/pyscf/__init__.py
CUDA Environment
    CuPy 14.0.1
    CUDA Path /home/ericb/mmml/.venv/lib/python3.13/site-packages/nvidia/cu13
    CUDA Build Version 13000
    CUDA Driver Version 13020
    CUDA Runtime Version 13000
CUDA toolkit
    cuSolver (12, 1, 0)
    cuBLAS 130300
    cuTENSOR None
Device info
    Device name b'NVIDIA GeForce RTX 4060 Ti'
    Device global memory 15.58 GB
    CuPy memory fraction 0.9
    Num. Devices 1
GPU4PySCF 1.6.1
GPU4PySCF path  /home/ericb/mmml/.venv/lib/python3.13/site-packages/gpu4pyscf

[CONFIG] conf_file None
[INPUT] verbose = 6
[INPUT] max_memory = 4000 
[INPUT] num. atoms = 16
[INPUT] num. electrons = 58
[INPUT] charge = 0
[INPUT] spin (= nelec alpha-beta = 2S) = 0
[INPUT] symmetry False subgroup None
[INPUT] Mole.unit = Ang
[INPUT] Symbol           X                Y                Z      unit          X                Y                Z       unit  Magmom
[INPUT]  1 C      1.506544000000   1.751339080000  -0.299038270000 AA    2.846955554607   3.309551212448  -0.565100431064 Bohr   0.0
[INPUT]  2 C      0.196685370000   2.131387550000   0.009510600000 AA    0.371681482009   4.027738734808   0.017972429280 Bohr   0.0
[INPUT]  3 H     -0.133856600000   3.136843980000  -0.206649020000 AA   -0.252952313965   5.927776017691  -0.390510051710 Bohr   0.0
[INPUT]  4 C      1.944774010000   0.449451780000  -0.021128100000 AA    3.675090253072   0.849340770398  -0.039926322532 Bohr   0.0
[INPUT]  5 H      2.954245840000   0.149330910000  -0.254278300000 AA    5.582715542236   0.282194521832  -0.480516346420 Bohr   0.0
[INPUT]  6 C     -0.683661850000   1.208303460000   0.593587870000 AA   -1.291933658313   2.283362614764   1.121718505164 Bohr   0.0
[INPUT]  7 H     -1.695230150000   1.500634800000   0.830614010000 AA   -3.203520701605   2.835788784991   1.569632994127 Bohr   0.0
[INPUT]  8 C      1.063663460000  -0.474310240000   0.563120400000 AA    2.010032628107  -0.896316451677   1.064143331156 Bohr   0.0
[INPUT]  9 H      1.397442250000  -1.478659550000   0.776922250000 AA    2.640783127396  -2.794261580973   1.468170272581 Bohr   0.0
[INPUT] 10 C     -0.252822510000  -0.097771880000   0.870263410000 AA   -0.477765302025  -0.184762075884   1.644559501130 Bohr   0.0
[INPUT] 11 C     -1.210388550000  -1.079461050000   1.471865870000 AA   -2.287302863809  -2.039885746635   2.781423386395 Bohr   0.0
[INPUT] 12 H     -1.691066470000  -0.620309880000   2.362166310000 AA   -3.195652486735  -1.172215785562   4.463847386574 Bohr   0.0
[INPUT] 13 H     -0.671957460000  -2.001822980000   1.778491500000 AA   -1.269815566758  -3.782897182061   3.360861849867 Bohr   0.0
[INPUT] 14 H     -1.982434360000  -1.332990410000   0.714358280000 AA   -3.746258000327  -2.518986801572   1.349941504015 Bohr   0.0
[INPUT] 15 O      2.377610580000   2.683759750000  -0.894950400000 AA    4.493032827068   5.071570911631  -1.691211151070 Bohr   0.0
[INPUT] 16 H      3.213999030000   2.242578980000  -1.049898540000 AA    6.073577931318   4.237860084906  -1.984020699181 Bohr   0.0
[INPUT] ---------------- BASIS SET ---------------- 
[INPUT] l, kappa, [nprim/nctr], expnt,             c_1 c_2 ...
[INPUT] H
[INPUT] 0    0    [3    /1   ]  13.010701         0.019682158
                                1.9622572         0.13796524
                                0.44453796        0.47831935
[INPUT] 0    0    [1    /1   ]  0.12194962           1
[INPUT] 1    0    [1    /1   ]  0.8                  1
[INPUT] C
[INPUT] 0    0    [5    /1   ]  1238.4016938      0.0054568832082
                                186.29004992      0.040638409211
                                42.251176346      0.18025593888
                                11.676557932      0.46315121755
                                3.5930506482      0.44087173314
[INPUT] 0    0    [1    /1   ]  0.40245147363        1
[INPUT] 0    0    [1    /1   ]  0.13090182668        1
[INPUT] 1    0    [3    /1   ]  9.4680970621      0.038387871728
                                2.0103545142      0.21117025112
                                0.54771004707     0.51328172114
[INPUT] 1    0    [1    /1   ]  0.15268613795        1
[INPUT] 2    0    [1    /1   ]  0.8                  1
[INPUT] O
[INPUT] 0    0    [5    /1   ]  2266.1767785      -0.0053431809926
                                340.87010191      -0.03989003923
                                77.363135167      -0.17853911985
                                21.47964494       -0.46427684959
                                6.6589433124      -0.44309745172
[INPUT] 0    0    [1    /1   ]  0.80975975668        1
[INPUT] 0    0    [1    /1   ]  0.25530772234        1
[INPUT] 1    0    [3    /1   ]  17.721504317      0.043394573193
                                3.863550544       0.23094120765
                                1.0480920883      0.51375311064
[INPUT] 1    0    [1    /1   ]  0.27641544411        1
[INPUT] 2    0    [1    /1   ]  1.2                  1

nuclear repulsion = 340.706395674506
number of shells = 72
number of NR pGTOs = 248
number of NR cGTOs = 152
basis = def2-SVP
ecp = {}
CPU time:         4.63


******** <class 'gpu4pyscf.df.df_jk.DFRKS'> ********
method = DFRKS
initial guess = minao
damping factor = None
level_shift factor = None
DIIS = <class 'gpu4pyscf.scf.diis.CDIIS'>
diis_start_cycle = 1
diis_space = 8
diis_damp = 0
SCF conv_tol = 1e-10
SCF conv_tol_grad = None
SCF max_cycles = 50
direct_scf = False
XC library gpu4pyscf.dft.libxc version 7.0.0 (CUDA)
    unable to decode the reference due to https://github.com/NVIDIA/cuda-python/issues/29
XC functionals = PBE0
radial grids: 
Treutler-Ahlrichs [JCP 102, 346 (1995); DOI:10.1063/1.469408] (M4) radial grids

becke partition: Becke, JCP 88, 2547 (1988); DOI:10.1063/1.454033
pruning grids: <function nwchem_prune at 0x7fd26045ef20>
grids dens level: 3
symmetrized grids: False
atomic radii adjust function: <function treutler_atomic_radii_adjust at 0x7fd26045f060>
User specified grid scheme (99, 590)
small_rho_cutoff = 1e-07
Set gradient conv threshold to 1e-05
    CPU time for generating initial guess                                0.64 sec, wall time      0.08 sec, GPU time     78.75 ms
Number of shells for each [l, nprim] group
    [0 5] : 8
    [0 3] : 8
    [0 1] : 24
    [1 3] : 8
    [1 1] : 16
    [2 1] : 8
sp_blocks = 21, ksh_blocks = 1, shm_size = 59512 B
    CPU time for processing contract_int3c2e_auxvec                      0.00 sec, wall time      0.00 sec, GPU time      4.43 ms
Number of shells for each [l, nprim] group
    [0 5] : 8
    [0 3] : 8
    [0 1] : 24
    [1 3] : 8
    [1 1] : 16
    [2 1] : 8
Number of shells for each [l, nprim] group
    [0 5] : 8
    [0 3] : 8
    [0 1] : 24
    [1 3] : 8
    [1 1] : 16
    [2 1] : 8
    CPU time for hcore                                                   0.14 sec, wall time      0.06 sec, GPU time     63.09 ms
atom C rad-grids = 99, ang-grids = [ 50  50  50  50  50  50  50  50  50  50  50  50  50  50  50  50  50  50
  50  50  50  50  50  50  50  50  50  50  50  50  86  86  86  86  86  86
  86  86  86  86  86  86 434 434 434 434 434 434 434 434 434 590 590 590
 590 590 590 590 590 590 590 590 590 590 590 590 590 590 590 590 590 590
 590 590 590 590 590 434 434 434 434 434 434 434 434 434 434 434 434 434
 434 434 434 434 434 434 434 434 434]
atom H rad-grids = 99, ang-grids = [ 50  50  50  50  50  50  50  50  50  50  50  50  50  50  50  50  50  50
  50  50  50  50  50  50  50  50  50  50  50  50  86  86  86  86  86  86
  86 434 434 434 434 434 434 434 434 434 434 590 590 590 590 590 590 590
 590 590 590 590 590 590 590 590 590 590 590 590 590 590 590 590 590 590
 590 590 434 434 434 434 434 434 434 434 434 434 434 434 434 434 434 434
 434 434 434 434 434 434 434 434 434]
atom O rad-grids = 99, ang-grids = [ 50  50  50  50  50  50  50  50  50  50  50  50  50  50  50  50  50  50
  50  50  50  50  50  50  50  50  50  50  50  50  86  86  86  86  86  86
  86  86  86  86  86  86  86 434 434 434 434 434 434 434 434 590 590 590
 590 590 590 590 590 590 590 590 590 590 590 590 590 590 590 590 590 590
 590 590 590 590 590 590 434 434 434 434 434 434 434 434 434 434 434 434
 434 434 434 434 434 434 434 434 434]
    CPU time for generating atomic grids                                 0.01 sec, wall time      0.01 sec, GPU time     21.87 ms
Padding 160 grids
    CPU time for sorting grids                                           0.03 sec, wall time      0.03 sec, GPU time     17.41 ms
tot grids = 516352
Number of shells for each [l, nctr] group
    [0 1] : 24
    [0 3] : 8
    [0 5] : 8
    [1 1] : 16
    [1 3] : 8
    [2 1] : 8
0 - 516352 grids are calculated on Device 0.
mem_info: unallocated=12432.38 MB, used=26.37 MB, free=34.98 MB, free_blocks=17
13072.971776 MB memory is available on Device 0, block_size None
    CPU time for eval rho                                                0.12 sec, wall time      0.12 sec, GPU time    151.52 ms
Drop grids 76050
prune_by_density_: 18 padding grids
    CPU time for setting up grids                                        0.19 sec, wall time      0.20 sec, GPU time    195.49 ms
440320 grids on Device 0
0 - 440320 grids are calculated on Device 0.
mem_info: unallocated=12450.38 MB, used=40.96 MB, free=45.64 MB, free_blocks=20
13103.023104 MB memory is available on Device 0, block_size None
    CPU time for eval rho on Device 0                                    0.09 sec, wall time      0.09 sec, GPU time    125.50 ms
    CPU time for eval vxc on Device 0                                    0.09 sec, wall time      0.09 sec, GPU time     56.97 ms
0 - 440320 grids are calculated on Device 0.
mem_info: unallocated=12396.38 MB, used=56.51 MB, free=72.11 MB, free_blocks=22
13074.15808 MB memory is available on Device 0, block_size None
    CPU time for eval integration on 0                                   0.02 sec, wall time      0.02 sec, GPU time     88.21 ms
    CPU time for nr_rks                                                  0.26 sec, wall time      0.27 sec, GPU time    273.92 ms
nelec by numeric integration = 57.95613409705491
    CPU time for vxc                                                     0.46 sec, wall time      0.47 sec, GPU time    469.53 ms
Build CDERI ...
Psi4 predefined JKFIT basis set def2-svp-jkfit for HF
Default auxbasis def2-svp-jkfit is applied universally
num shells = 248, num cGTOs = 746
    CPU time for 2c2e                                                    0.08 sec, wall time      0.01 sec, GPU time     10.93 ms
Number of shells for each [l, nctr] group
    [0 1] : 24
    [0 3] : 8
    [0 5] : 8
    [1 1] : 16
    [1 3] : 8
    [2 1] : 8
Number of shells for each [l, nctr] group
    [0 1] : 80
    [0 3] : 8
    [0 5] : 8
    [1 1] : 72
    [1 3] : 8
    [2 1] : 47
    [2 2] : 7
    [2 3] : 1
    [3 1] : 2
    [3 2] : 7
    [4 1] : 8
    CPU time for Initialize q_cond                                       0.08 sec, wall time      0.01 sec, GPU time      6.27 ms
    CPU time for Get AO pairing                                          0.00 sec, wall time      0.00 sec, GPU time      0.36 ms
    CPU time for AO indices                                              0.00 sec, wall time      0.00 sec, GPU time      0.14 ms
    CPU time for Aux AO indices                                          0.00 sec, wall time      0.00 sec, GPU time      0.29 ms
    CPU time for Get AO pairs                                            0.02 sec, wall time      0.00 sec, GPU time      0.58 ms
    CPU time for prepare intopt                                          0.18 sec, wall time      0.01 sec, GPU time     10.85 ms
size of aux basis 746
Saving CDERI on GPU
CDERI size 0.062 GB on Device 0
    CPU time for Initialize GPU cache on Device 0                        0.00 sec, wall time      0.00 sec, GPU time      1.34 ms
    CPU time for solve 5 / 21 on Device 0                                0.05 sec, wall time      0.07 sec, GPU time     65.89 ms
    CPU time for transfer data for 5 / 21 on Device 0                    0.00 sec, wall time      0.00 sec, GPU time      0.55 ms
    CPU time for solve 2 / 21 on Device 0                                0.00 sec, wall time      0.00 sec, GPU time      3.49 ms
    CPU time for transfer data for 2 / 21 on Device 0                    0.00 sec, wall time      0.00 sec, GPU time      0.06 ms
    CPU time for solve 4 / 21 on Device 0                                0.00 sec, wall time      0.00 sec, GPU time      3.98 ms
    CPU time for transfer data for 4 / 21 on Device 0                    0.00 sec, wall time      0.00 sec, GPU time      0.08 ms
    CPU time for solve 12 / 21 on Device 0                               0.00 sec, wall time      0.00 sec, GPU time      5.02 ms
    CPU time for transfer data for 12 / 21 on Device 0                   0.00 sec, wall time      0.00 sec, GPU time      0.06 ms
    CPU time for solve 11 / 21 on Device 0                               0.00 sec, wall time      0.00 sec, GPU time      3.88 ms
    CPU time for transfer data for 11 / 21 on Device 0                   0.00 sec, wall time      0.00 sec, GPU time      0.05 ms
    CPU time for solve 3 / 21 on Device 0                                0.00 sec, wall time      0.00 sec, GPU time      3.17 ms
    CPU time for transfer data for 3 / 21 on Device 0                    0.00 sec, wall time      0.00 sec, GPU time      0.06 ms
    CPU time for solve 1 / 21 on Device 0                                0.00 sec, wall time      0.00 sec, GPU time      2.72 ms
    CPU time for transfer data for 1 / 21 on Device 0                    0.00 sec, wall time      0.00 sec, GPU time      0.06 ms
    CPU time for solve 17 / 21 on Device 0                               0.00 sec, wall time      0.00 sec, GPU time      3.60 ms
    CPU time for transfer data for 17 / 21 on Device 0                   0.00 sec, wall time      0.00 sec, GPU time      0.06 ms
    CPU time for solve 14 / 21 on Device 0                               0.00 sec, wall time      0.01 sec, GPU time      8.07 ms
    CPU time for transfer data for 14 / 21 on Device 0                   0.00 sec, wall time      0.00 sec, GPU time      0.06 ms
    CPU time for solve 0 / 21 on Device 0                                0.00 sec, wall time      0.00 sec, GPU time      2.66 ms
    CPU time for transfer data for 0 / 21 on Device 0                    0.00 sec, wall time      0.00 sec, GPU time      0.06 ms
    CPU time for solve 16 / 21 on Device 0                               0.00 sec, wall time      0.00 sec, GPU time      3.00 ms
    CPU time for transfer data for 16 / 21 on Device 0                   0.00 sec, wall time      0.00 sec, GPU time      0.06 ms
    CPU time for solve 8 / 21 on Device 0                                0.00 sec, wall time      0.00 sec, GPU time      3.43 ms
    CPU time for transfer data for 8 / 21 on Device 0                    0.00 sec, wall time      0.00 sec, GPU time      0.06 ms
    CPU time for solve 7 / 21 on Device 0                                0.00 sec, wall time      0.00 sec, GPU time      3.13 ms
    CPU time for transfer data for 7 / 21 on Device 0                    0.00 sec, wall time      0.00 sec, GPU time      0.06 ms
    CPU time for solve 10 / 21 on Device 0                               0.00 sec, wall time      0.00 sec, GPU time      4.26 ms
    CPU time for transfer data for 10 / 21 on Device 0                   0.00 sec, wall time      0.00 sec, GPU time      0.06 ms
    CPU time for solve 20 / 21 on Device 0                               0.00 sec, wall time      0.00 sec, GPU time      5.95 ms
    CPU time for transfer data for 20 / 21 on Device 0                   0.00 sec, wall time      0.00 sec, GPU time      0.08 ms
    CPU time for solve 19 / 21 on Device 0                               0.00 sec, wall time      0.00 sec, GPU time      5.47 ms
    CPU time for transfer data for 19 / 21 on Device 0                   0.00 sec, wall time      0.00 sec, GPU time      0.07 ms
    CPU time for solve 15 / 21 on Device 0                               0.00 sec, wall time      0.00 sec, GPU time      4.37 ms
    CPU time for transfer data for 15 / 21 on Device 0                   0.00 sec, wall time      0.00 sec, GPU time      0.07 ms
    CPU time for solve 9 / 21 on Device 0                                0.00 sec, wall time      0.00 sec, GPU time      5.28 ms
    CPU time for transfer data for 9 / 21 on Device 0                    0.00 sec, wall time      0.00 sec, GPU time      0.08 ms
    CPU time for solve 13 / 21 on Device 0                               0.00 sec, wall time      0.00 sec, GPU time      5.78 ms
    CPU time for transfer data for 13 / 21 on Device 0                   0.00 sec, wall time      0.00 sec, GPU time      0.07 ms
    CPU time for solve 6 / 21 on Device 0                                0.00 sec, wall time      0.00 sec, GPU time      5.52 ms
    CPU time for transfer data for 6 / 21 on Device 0                    0.00 sec, wall time      0.00 sec, GPU time      0.08 ms
    CPU time for solve 18 / 21 on Device 0                               0.00 sec, wall time      0.00 sec, GPU time      7.26 ms
    CPU time for transfer data for 18 / 21 on Device 0                   0.01 sec, wall time      0.01 sec, GPU time      0.10 ms
    CPU time for cholesky_eri                                            0.40 sec, wall time      0.19 sec, GPU time    194.57 ms
    CPU time for init jk                                                 0.48 sec, wall time      0.21 sec, GPU time    205.80 ms
14.956 GB memory available on Device 0, block size = 64
    CPU time for vj and vk on Device 0                                   0.01 sec, wall time      0.01 sec, GPU time     45.99 ms
    CPU time for vj and vk                                               0.05 sec, wall time      0.05 sec, GPU time     47.79 ms
    CPU time for veff                                                    0.53 sec, wall time      0.26 sec, GPU time    255.67 ms
E1 = -1138.8741051446414  Ecoul = 500.0550632904402  Exc = -49.11282913187644
init E= -347.225475311571
cond(S) = 23764.659941883066
    CPU time for SCF initialization                                      1.79 sec, wall time      0.96 sec, GPU time    955.33 ms
    CPU time for DIIS                                                    0.00 sec, wall time      0.00 sec, GPU time      0.29 ms
    CPU time for eig                                                     0.00 sec, wall time      0.00 sec, GPU time      4.04 ms
  HOMO = -0.273715399058404  LUMO = -0.0939325385616366
440320 grids on Device 0
0 - 440320 grids are calculated on Device 0.
mem_info: unallocated=12304.38 MB, used=113.51 MB, free=97.08 MB, free_blocks=25
13003.872768 MB memory is available on Device 0, block_size None
    CPU time for eval rho on Device 0                                    0.05 sec, wall time      0.05 sec, GPU time     87.81 ms
    CPU time for eval vxc on Device 0                                    0.04 sec, wall time      0.04 sec, GPU time      2.81 ms
0 - 440320 grids are calculated on Device 0.
mem_info: unallocated=12296.38 MB, used=129.02 MB, free=81.57 MB, free_blocks=24
12979.220992 MB memory is available on Device 0, block_size None
    CPU time for eval integration on 0                                   0.02 sec, wall time      0.02 sec, GPU time     77.88 ms
    CPU time for nr_rks                                                  0.17 sec, wall time      0.17 sec, GPU time    170.57 ms
nelec by numeric integration = 58.00000528102705
    CPU time for vxc                                                     0.17 sec, wall time      0.17 sec, GPU time    170.66 ms
14.955 GB memory available on Device 0, block size = 64
    CPU time for vj and vk on Device 0                                   0.01 sec, wall time      0.01 sec, GPU time     13.05 ms
    CPU time for vj and vk                                               0.01 sec, wall time      0.01 sec, GPU time     14.81 ms
    CPU time for veff                                                    0.01 sec, wall time      0.02 sec, GPU time     15.29 ms
    CPU time for veff                                                    0.19 sec, wall time      0.19 sec, GPU time    187.95 ms
E1 = -1146.666127413085  Ecoul = 509.3405070022389  Exc = -49.42875451249526
    CPU time for cycle=1                                                 0.19 sec, wall time      0.19 sec, GPU time    193.99 ms
cycle= 1 E= -346.047979248835  delta_E= 1.18  |g|= 0.621  |ddm|=  4.8
diis-c [-0.38573387  1.        ]
    CPU time for DIIS                                                    0.00 sec, wall time      0.00 sec, GPU time      1.59 ms
    CPU time for eig                                                     0.00 sec, wall time      0.00 sec, GPU time      4.71 ms
  HOMO = -0.165276699856666  LUMO = 0.0255344476351816
440320 grids on Device 0
0 - 440320 grids are calculated on Device 0.
mem_info: unallocated=12304.38 MB, used=113.69 MB, free=96.91 MB, free_blocks=26
13003.685376 MB memory is available on Device 0, block_size None
    CPU time for eval rho on Device 0                                    0.05 sec, wall time      0.05 sec, GPU time     86.27 ms
    CPU time for eval vxc on Device 0                                    0.04 sec, wall time      0.04 sec, GPU time      2.76 ms
0 - 440320 grids are calculated on Device 0.
mem_info: unallocated=12296.38 MB, used=129.20 MB, free=81.40 MB, free_blocks=24
12979.0336 MB memory is available on Device 0, block_size None
    CPU time for eval integration on 0                                   0.02 sec, wall time      0.02 sec, GPU time     77.92 ms
    CPU time for nr_rks                                                  0.17 sec, wall time      0.17 sec, GPU time    168.68 ms
nelec by numeric integration = 58.00000548331141
    CPU time for vxc                                                     0.17 sec, wall time      0.17 sec, GPU time    168.75 ms
14.955 GB memory available on Device 0, block size = 64
    CPU time for vj and vk on Device 0                                   0.01 sec, wall time      0.01 sec, GPU time     13.01 ms
    CPU time for vj and vk                                               0.01 sec, wall time      0.01 sec, GPU time     14.54 ms
    CPU time for veff                                                    0.01 sec, wall time      0.02 sec, GPU time     15.04 ms
    CPU time for veff                                                    0.19 sec, wall time      0.19 sec, GPU time    184.50 ms
E1 = -1139.568915251535  Ecoul = 501.55298767280067  Exc = -48.69108816593014
    CPU time for cycle=2                                                 0.19 sec, wall time      0.19 sec, GPU time    191.51 ms
cycle= 2 E= -346.000620070158  delta_E= 0.0474  |g|= 0.812  |ddm|= 1.44
diis-c [-0.0155062   0.56877593  0.43122407]
    CPU time for DIIS                                                    0.00 sec, wall time      0.00 sec, GPU time      0.70 ms
    CPU time for eig                                                     0.00 sec, wall time      0.00 sec, GPU time      4.79 ms
  HOMO = -0.222414282019041  LUMO = 0.00247339524247089
440320 grids on Device 0
0 - 440320 grids are calculated on Device 0.
mem_info: unallocated=12304.38 MB, used=113.87 MB, free=96.73 MB, free_blocks=28
13003.499008 MB memory is available on Device 0, block_size None
    CPU time for eval rho on Device 0                                    0.05 sec, wall time      0.05 sec, GPU time     86.25 ms
    CPU time for eval vxc on Device 0                                    0.04 sec, wall time      0.04 sec, GPU time      2.75 ms
0 - 440320 grids are calculated on Device 0.
mem_info: unallocated=12296.38 MB, used=129.38 MB, free=81.22 MB, free_blocks=26
12978.847232 MB memory is available on Device 0, block_size None
    CPU time for eval integration on 0                                   0.02 sec, wall time      0.02 sec, GPU time     78.00 ms
    CPU time for nr_rks                                                  0.17 sec, wall time      0.17 sec, GPU time    168.75 ms
nelec by numeric integration = 58.00000528218581
    CPU time for vxc                                                     0.17 sec, wall time      0.17 sec, GPU time    168.82 ms
14.955 GB memory available on Device 0, block size = 64
    CPU time for vj and vk on Device 0                                   0.01 sec, wall time      0.01 sec, GPU time     12.75 ms
    CPU time for vj and vk                                               0.01 sec, wall time      0.01 sec, GPU time     14.09 ms
    CPU time for veff                                                    0.01 sec, wall time      0.01 sec, GPU time     14.49 ms
    CPU time for veff                                                    0.18 sec, wall time      0.19 sec, GPU time    184.03 ms
E1 = -1142.702774853896  Ecoul = 504.9258234305865  Exc = -49.05670507618704
    CPU time for cycle=3                                                 0.19 sec, wall time      0.19 sec, GPU time    190.20 ms
cycle= 3 E= -346.12726082499  delta_E= -0.127  |g|= 0.109  |ddm|= 0.823
diis-c [-0.00213969  0.23102705  0.20460663  0.56436632]
    CPU time for DIIS                                                    0.00 sec, wall time      0.00 sec, GPU time      0.77 ms
    CPU time for eig                                                     0.00 sec, wall time      0.02 sec, GPU time     23.88 ms
  HOMO = -0.231981679324132  LUMO = -0.0112581571118926
440320 grids on Device 0
0 - 440320 grids are calculated on Device 0.
mem_info: unallocated=12304.38 MB, used=114.04 MB, free=96.55 MB, free_blocks=27
13003.31264 MB memory is available on Device 0, block_size None
    CPU time for eval rho on Device 0                                    0.05 sec, wall time      0.05 sec, GPU time     93.06 ms
    CPU time for eval vxc on Device 0                                    0.04 sec, wall time      0.04 sec, GPU time      2.81 ms
0 - 440320 grids are calculated on Device 0.
mem_info: unallocated=12296.38 MB, used=129.55 MB, free=81.04 MB, free_blocks=26
12978.660864 MB memory is available on Device 0, block_size None
    CPU time for eval integration on 0                                   0.02 sec, wall time      0.02 sec, GPU time     82.38 ms
    CPU time for nr_rks                                                  0.17 sec, wall time      0.18 sec, GPU time    180.48 ms
nelec by numeric integration = 58.00000525262736
    CPU time for vxc                                                     0.17 sec, wall time      0.18 sec, GPU time    180.56 ms
14.954 GB memory available on Device 0, block size = 64
    CPU time for vj and vk on Device 0                                   0.01 sec, wall time      0.01 sec, GPU time     13.51 ms
    CPU time for vj and vk                                               0.01 sec, wall time      0.01 sec, GPU time     14.91 ms
    CPU time for veff                                                    0.01 sec, wall time      0.02 sec, GPU time     15.37 ms
    CPU time for veff                                                    0.19 sec, wall time      0.20 sec, GPU time    196.67 ms
E1 = -1143.2866127954962  Ecoul = 505.53095086033426  Exc = -49.08062512850785
    CPU time for cycle=4                                                 0.20 sec, wall time      0.22 sec, GPU time    222.04 ms
cycle= 4 E= -346.129891389164  delta_E= -0.00263  |g|= 0.0295  |ddm|= 0.138
diis-c [-1.20311101e-04  2.06870742e-02  2.73010577e-02  2.32098681e-01
  7.19913187e-01]
    CPU time for DIIS                                                    0.00 sec, wall time      0.00 sec, GPU time      0.92 ms
    CPU time for eig                                                     0.00 sec, wall time      0.00 sec, GPU time      4.77 ms
  HOMO = -0.230339878232466  LUMO = -0.00892556605628488
440320 grids on Device 0
0 - 440320 grids are calculated on Device 0.
mem_info: unallocated=12304.38 MB, used=114.22 MB, free=96.37 MB, free_blocks=27
13003.126272 MB memory is available on Device 0, block_size None
    CPU time for eval rho on Device 0                                    0.05 sec, wall time      0.05 sec, GPU time     86.38 ms
    CPU time for eval vxc on Device 0                                    0.04 sec, wall time      0.04 sec, GPU time      2.85 ms
0 - 440320 grids are calculated on Device 0.
mem_info: unallocated=12296.38 MB, used=129.73 MB, free=80.86 MB, free_blocks=26
12978.474496 MB memory is available on Device 0, block_size None
    CPU time for eval integration on 0                                   0.02 sec, wall time      0.02 sec, GPU time     78.03 ms
    CPU time for nr_rks                                                  0.17 sec, wall time      0.17 sec, GPU time    168.85 ms
nelec by numeric integration = 58.00000524758667
    CPU time for vxc                                                     0.17 sec, wall time      0.17 sec, GPU time    168.93 ms
14.954 GB memory available on Device 0, block size = 64
    CPU time for vj and vk on Device 0                                   0.01 sec, wall time      0.01 sec, GPU time     13.36 ms
    CPU time for vj and vk                                               0.01 sec, wall time      0.01 sec, GPU time     14.71 ms
    CPU time for veff                                                    0.01 sec, wall time      0.02 sec, GPU time     15.29 ms
    CPU time for veff                                                    0.19 sec, wall time      0.19 sec, GPU time    184.97 ms
E1 = -1143.1666167124274  Ecoul = 505.40350945865026  Exc = -49.07337337011114
    CPU time for cycle=5                                                 0.19 sec, wall time      0.19 sec, GPU time    191.40 ms
cycle= 5 E= -346.130084949382  delta_E= -0.000194  |g|= 0.0114  |ddm|= 0.0437
diis-c [-1.60001880e-05 -3.59445910e-04  4.33754273e-03  9.58946191e-02
  3.86790056e-01  5.13337228e-01]
    CPU time for DIIS                                                    0.00 sec, wall time      0.00 sec, GPU time      1.02 ms
    CPU time for eig                                                     0.00 sec, wall time      0.00 sec, GPU time      4.70 ms
  HOMO = -0.229939708714034  LUMO = -0.00844871503119616
440320 grids on Device 0
0 - 440320 grids are calculated on Device 0.
mem_info: unallocated=12304.38 MB, used=114.40 MB, free=96.19 MB, free_blocks=28
13002.939904 MB memory is available on Device 0, block_size None
    CPU time for eval rho on Device 0                                    0.05 sec, wall time      0.05 sec, GPU time     86.23 ms
    CPU time for eval vxc on Device 0                                    0.04 sec, wall time      0.04 sec, GPU time      2.79 ms
0 - 440320 grids are calculated on Device 0.
mem_info: unallocated=12296.38 MB, used=129.91 MB, free=80.69 MB, free_blocks=27
12978.288128 MB memory is available on Device 0, block_size None
    CPU time for eval integration on 0                                   0.02 sec, wall time      0.02 sec, GPU time    107.24 ms
    CPU time for nr_rks                                                  0.20 sec, wall time      0.20 sec, GPU time    197.83 ms
nelec by numeric integration = 58.00000524988503
    CPU time for vxc                                                     0.20 sec, wall time      0.20 sec, GPU time    197.91 ms
14.954 GB memory available on Device 0, block size = 64
    CPU time for vj and vk on Device 0                                   0.01 sec, wall time      0.01 sec, GPU time     29.85 ms
    CPU time for vj and vk                                               0.03 sec, wall time      0.03 sec, GPU time     33.21 ms
    CPU time for veff                                                    0.03 sec, wall time      0.03 sec, GPU time     33.69 ms
    CPU time for veff                                                    0.23 sec, wall time      0.24 sec, GPU time    232.38 ms
E1 = -1143.1343047913713  Ecoul = 505.3698379334227  Exc = -49.07204674350964
    CPU time for cycle=6                                                 0.24 sec, wall time      0.24 sec, GPU time    238.87 ms
cycle= 6 E= -346.130117926952  delta_E= -3.3e-05  |g|= 0.00358  |ddm|= 0.0172
diis-c [-8.17536418e-07 -3.34814203e-03 -1.80708956e-03  1.85903800e-02
  1.02469315e-01  2.73598194e-01  6.10497343e-01]
    CPU time for DIIS                                                    0.00 sec, wall time      0.00 sec, GPU time      1.15 ms
    CPU time for eig                                                     0.00 sec, wall time      0.00 sec, GPU time      4.69 ms
  HOMO = -0.230028558047833  LUMO = -0.00860060020609014
440320 grids on Device 0
0 - 440320 grids are calculated on Device 0.
mem_info: unallocated=12304.38 MB, used=114.58 MB, free=96.02 MB, free_blocks=28
13002.753536 MB memory is available on Device 0, block_size None
    CPU time for eval rho on Device 0                                    0.05 sec, wall time      0.05 sec, GPU time     86.38 ms
    CPU time for eval vxc on Device 0                                    0.04 sec, wall time      0.04 sec, GPU time      2.75 ms
0 - 440320 grids are calculated on Device 0.
mem_info: unallocated=12296.38 MB, used=130.09 MB, free=80.51 MB, free_blocks=27
12978.10176 MB memory is available on Device 0, block_size None
    CPU time for eval integration on 0                                   0.02 sec, wall time      0.02 sec, GPU time     77.96 ms
    CPU time for nr_rks                                                  0.17 sec, wall time      0.17 sec, GPU time    168.62 ms
nelec by numeric integration = 58.0000052493541
    CPU time for vxc                                                     0.17 sec, wall time      0.17 sec, GPU time    168.69 ms
14.954 GB memory available on Device 0, block size = 64
    CPU time for vj and vk on Device 0                                   0.01 sec, wall time      0.01 sec, GPU time     12.86 ms
    CPU time for vj and vk                                               0.01 sec, wall time      0.01 sec, GPU time     14.28 ms
    CPU time for veff                                                    0.01 sec, wall time      0.01 sec, GPU time     14.78 ms
    CPU time for veff                                                    0.18 sec, wall time      0.19 sec, GPU time    184.19 ms
E1 = -1143.1412925522425  Ecoul = 505.3770059449108  Exc = -49.07223039628315
    CPU time for cycle=7                                                 0.19 sec, wall time      0.19 sec, GPU time    190.72 ms
cycle= 7 E= -346.130121329108  delta_E= -3.4e-06  |g|= 0.000946  |ddm|= 0.00484
diis-c [-7.72428010e-08 -1.81270310e-03 -1.20501893e-03  5.69837370e-03
  3.71486407e-02  1.23694633e-01  3.28067918e-01  5.08408157e-01]
    CPU time for DIIS                                                    0.00 sec, wall time      0.00 sec, GPU time      1.13 ms
    CPU time for eig                                                     0.00 sec, wall time      0.00 sec, GPU time      4.69 ms
  HOMO = -0.230076797812463  LUMO = -0.00859977886381225
440320 grids on Device 0
0 - 440320 grids are calculated on Device 0.
mem_info: unallocated=12304.38 MB, used=114.75 MB, free=95.84 MB, free_blocks=28
13002.567168 MB memory is available on Device 0, block_size None
    CPU time for eval rho on Device 0                                    0.05 sec, wall time      0.05 sec, GPU time    103.36 ms
    CPU time for eval vxc on Device 0                                    0.07 sec, wall time      0.07 sec, GPU time     15.08 ms
0 - 440320 grids are calculated on Device 0.
mem_info: unallocated=12296.38 MB, used=130.26 MB, free=80.33 MB, free_blocks=25
12977.915392 MB memory is available on Device 0, block_size None
    CPU time for eval integration on 0                                   0.02 sec, wall time      0.02 sec, GPU time     99.61 ms
    CPU time for nr_rks                                                  0.22 sec, wall time      0.22 sec, GPU time    219.70 ms
nelec by numeric integration = 58.000005249434196
    CPU time for vxc                                                     0.22 sec, wall time      0.22 sec, GPU time    219.79 ms
14.954 GB memory available on Device 0, block size = 64
    CPU time for vj and vk on Device 0                                   0.01 sec, wall time      0.01 sec, GPU time     13.44 ms
    CPU time for vj and vk                                               0.01 sec, wall time      0.01 sec, GPU time     14.70 ms
    CPU time for veff                                                    0.01 sec, wall time      0.02 sec, GPU time     15.20 ms
    CPU time for veff                                                    0.23 sec, wall time      0.24 sec, GPU time    235.71 ms
E1 = -1143.1438379201595  Ecoul = 505.3797309717951  Exc = -49.07241027688913
    CPU time for cycle=8                                                 0.24 sec, wall time      0.24 sec, GPU time    242.23 ms
cycle= 8 E= -346.130121550747  delta_E= -2.22e-07  |g|= 0.000157  |ddm|= 0.0011
diis-c [-3.60796006e-09 -2.54630582e-04 -2.15964790e-04  3.62095857e-05
  1.63791802e-03  1.17651395e-02  4.08576852e-02  1.68867372e-01
  7.77306271e-01]
    CPU time for DIIS                                                    0.00 sec, wall time      0.00 sec, GPU time      1.27 ms
    CPU time for eig                                                     0.00 sec, wall time      0.00 sec, GPU time      4.71 ms
  HOMO = -0.230064798967721  LUMO = -0.00859390071896474
440320 grids on Device 0
0 - 440320 grids are calculated on Device 0.
mem_info: unallocated=12304.38 MB, used=114.93 MB, free=95.66 MB, free_blocks=28
13002.3808 MB memory is available on Device 0, block_size None
    CPU time for eval rho on Device 0                                    0.05 sec, wall time      0.05 sec, GPU time     89.23 ms
    CPU time for eval vxc on Device 0                                    0.04 sec, wall time      0.04 sec, GPU time      2.77 ms
0 - 440320 grids are calculated on Device 0.
mem_info: unallocated=12296.38 MB, used=130.44 MB, free=80.15 MB, free_blocks=26
12977.729024 MB memory is available on Device 0, block_size None
    CPU time for eval integration on 0                                   0.02 sec, wall time      0.02 sec, GPU time    115.79 ms
    CPU time for nr_rks                                                  0.21 sec, wall time      0.21 sec, GPU time    210.68 ms
nelec by numeric integration = 58.000005249383506
    CPU time for vxc                                                     0.21 sec, wall time      0.21 sec, GPU time    210.76 ms
14.953 GB memory available on Device 0, block size = 64
    CPU time for vj and vk on Device 0                                   0.01 sec, wall time      0.01 sec, GPU time     13.88 ms
    CPU time for vj and vk                                               0.02 sec, wall time      0.02 sec, GPU time     16.14 ms
    CPU time for veff                                                    0.02 sec, wall time      0.02 sec, GPU time     16.74 ms
    CPU time for veff                                                    0.23 sec, wall time      0.23 sec, GPU time    228.24 ms
E1 = -1143.1432715080855  Ecoul = 505.3791323297304  Exc = -49.07237805247246
    CPU time for cycle=9                                                 0.23 sec, wall time      0.23 sec, GPU time    234.97 ms
cycle= 9 E= -346.130121556321  delta_E= -5.57e-09  |g|= 4.85e-05  |ddm|= 0.000236
diis-c [-5.97576397e-10  6.14684071e-01 -1.46491617e-05 -2.71922664e-04
 -1.16693949e-03 -1.27938809e-03  5.19613184e-04  5.19644693e-02
  3.35564746e-01]
    CPU time for DIIS                                                    0.00 sec, wall time      0.00 sec, GPU time      1.29 ms
    CPU time for eig                                                     0.00 sec, wall time      0.00 sec, GPU time      5.00 ms
  HOMO = -0.230066427570166  LUMO = -0.00859392671189965
440320 grids on Device 0
0 - 440320 grids are calculated on Device 0.
mem_info: unallocated=12304.38 MB, used=114.93 MB, free=95.66 MB, free_blocks=29
13002.3808 MB memory is available on Device 0, block_size None
    CPU time for eval rho on Device 0                                    0.05 sec, wall time      0.05 sec, GPU time     86.98 ms
    CPU time for eval vxc on Device 0                                    0.04 sec, wall time      0.04 sec, GPU time      2.79 ms
0 - 440320 grids are calculated on Device 0.
mem_info: unallocated=12296.38 MB, used=130.44 MB, free=80.15 MB, free_blocks=28
12977.729024 MB memory is available on Device 0, block_size None
    CPU time for eval integration on 0                                   0.02 sec, wall time      0.02 sec, GPU time     87.85 ms
    CPU time for nr_rks                                                  0.18 sec, wall time      0.18 sec, GPU time    179.80 ms
nelec by numeric integration = 58.00000524939614
    CPU time for vxc                                                     0.18 sec, wall time      0.18 sec, GPU time    179.89 ms
14.953 GB memory available on Device 0, block size = 64
    CPU time for vj and vk on Device 0                                   0.01 sec, wall time      0.01 sec, GPU time     32.06 ms
    CPU time for vj and vk                                               0.03 sec, wall time      0.03 sec, GPU time     35.83 ms
    CPU time for veff                                                    0.03 sec, wall time      0.04 sec, GPU time     37.13 ms
    CPU time for veff                                                    0.22 sec, wall time      0.22 sec, GPU time    218.97 ms
E1 = -1143.1433029274094  Ecoul = 505.3791663365597  Exc = -49.07238064040565
    CPU time for cycle=10                                                0.22 sec, wall time      0.23 sec, GPU time    229.85 ms
cycle= 10 E= -346.130121556749  delta_E= -4.28e-10  |g|= 3.05e-05  |ddm|= 8.81e-05
diis-c [-3.88324977e-11  3.92940156e-01  5.23990076e-01 -1.02677209e-04
 -3.65563402e-04 -8.86669375e-04 -2.19653912e-03  1.13020160e-02
  7.53192019e-02]
    CPU time for DIIS                                                    0.00 sec, wall time      0.00 sec, GPU time      1.41 ms
    CPU time for eig                                                     0.00 sec, wall time      0.00 sec, GPU time      4.98 ms
  HOMO = -0.230066767947176  LUMO = -0.0085945175656779
440320 grids on Device 0
0 - 440320 grids are calculated on Device 0.
mem_info: unallocated=12304.38 MB, used=114.93 MB, free=95.66 MB, free_blocks=30
13002.3808 MB memory is available on Device 0, block_size None
    CPU time for eval rho on Device 0                                    0.05 sec, wall time      0.05 sec, GPU time     88.55 ms
    CPU time for eval vxc on Device 0                                    0.04 sec, wall time      0.04 sec, GPU time      2.86 ms
0 - 440320 grids are calculated on Device 0.
mem_info: unallocated=12296.38 MB, used=130.44 MB, free=80.15 MB, free_blocks=28
12977.729024 MB memory is available on Device 0, block_size None
    CPU time for eval integration on 0                                   0.02 sec, wall time      0.02 sec, GPU time     78.01 ms
    CPU time for nr_rks                                                  0.17 sec, wall time      0.17 sec, GPU time    173.21 ms
nelec by numeric integration = 58.00000524938991
    CPU time for vxc                                                     0.17 sec, wall time      0.17 sec, GPU time    174.44 ms
14.953 GB memory available on Device 0, block size = 64
    CPU time for vj and vk on Device 0                                   0.01 sec, wall time      0.01 sec, GPU time     33.84 ms
    CPU time for vj and vk                                               0.04 sec, wall time      0.04 sec, GPU time     39.20 ms
    CPU time for veff                                                    0.04 sec, wall time      0.04 sec, GPU time     40.91 ms
    CPU time for veff                                                    0.22 sec, wall time      0.22 sec, GPU time    219.72 ms
E1 = -1143.1433274405933  Ecoul = 505.37919157331925  Exc = -49.072381364247576
    CPU time for cycle=11                                                0.22 sec, wall time      0.23 sec, GPU time    227.04 ms
cycle= 11 E= -346.130121557015  delta_E= -2.66e-10  |g|= 4.77e-06  |ddm|= 4.06e-05
diis-c [-1.02872488e-11  6.65008933e-02  1.37095184e-01  7.96516394e-01
  5.12645530e-05  8.88568984e-05 -2.03119229e-04  1.83188533e-03
 -1.88135867e-03]
    CPU time for DIIS                                                    0.00 sec, wall time      0.00 sec, GPU time      1.46 ms
    CPU time for eig                                                     0.00 sec, wall time      0.00 sec, GPU time      4.74 ms
  HOMO = -0.230066184364643  LUMO = -0.00859438611358306
440320 grids on Device 0
0 - 440320 grids are calculated on Device 0.
mem_info: unallocated=12304.38 MB, used=114.93 MB, free=95.66 MB, free_blocks=30
13002.3808 MB memory is available on Device 0, block_size None
    CPU time for eval rho on Device 0                                    0.07 sec, wall time      0.07 sec, GPU time    109.58 ms
    CPU time for eval vxc on Device 0                                    0.04 sec, wall time      0.04 sec, GPU time      2.78 ms
0 - 440320 grids are calculated on Device 0.
mem_info: unallocated=12296.38 MB, used=130.44 MB, free=80.15 MB, free_blocks=27
12977.729024 MB memory is available on Device 0, block_size None
    CPU time for eval integration on 0                                   0.02 sec, wall time      0.02 sec, GPU time     77.89 ms
    CPU time for nr_rks                                                  0.19 sec, wall time      0.19 sec, GPU time    193.06 ms
nelec by numeric integration = 58.00000524938891
    CPU time for vxc                                                     0.19 sec, wall time      0.19 sec, GPU time    193.12 ms
14.953 GB memory available on Device 0, block size = 64
    CPU time for vj and vk on Device 0                                   0.01 sec, wall time      0.01 sec, GPU time     13.04 ms
    CPU time for vj and vk                                               0.01 sec, wall time      0.01 sec, GPU time     14.50 ms
    CPU time for veff                                                    0.01 sec, wall time      0.01 sec, GPU time     15.00 ms
    CPU time for veff                                                    0.21 sec, wall time      0.21 sec, GPU time    211.36 ms
E1 = -1143.1433007767864  Ecoul = 505.37916261922544  Exc = -49.07237907396373
    CPU time for cycle=12                                                0.21 sec, wall time      0.22 sec, GPU time    218.27 ms
cycle= 12 E= -346.130121557018  delta_E= -3.07e-12  |g|= 3.65e-06  |ddm|= 8.63e-06
    CPU time for SCF                                                     4.30 sec, wall time      3.53 sec, GPU time   3528.61 ms
converged SCF energy = -346.130121557018


******** <class 'gpu4pyscf.df.grad.rks.Gradients'> for <class 'gpu4pyscf.df.df_jk.DFRKS'> ********
unit = Eh/Bohr
max_memory 4000 MB (current use 1174 MB)
Number of shells for each [l, nctr] group
    [0 1] : 24
    [0 3] : 8
    [0 5] : 8
    [1 1] : 16
    [1 3] : 8
    [2 1] : 8
    CPU time for Initialize q_cond                                       0.04 sec, wall time      0.00 sec, GPU time      5.40 ms
    CPU time for Get AO pairing                                          0.10 sec, wall time      0.00 sec, GPU time      2.48 ms
    CPU time for AO indices                                              0.00 sec, wall time      0.00 sec, GPU time      1.22 ms
    CPU time for Initialize GPU cache                                    0.01 sec, wall time      0.01 sec, GPU time      4.61 ms
    CPU time for gradients of h1e                                        0.71 sec, wall time      0.08 sec, GPU time     85.00 ms
440320 grids on Device 0
0 - 440320 grids are calculated on Device 0.
mem_info: unallocated=12304.38 MB, used=39.85 MB, free=170.74 MB, free_blocks=31
13081.106432 MB memory is available on Device 0, block_size None
    CPU time for gradient of vxc                                         2.76 sec, wall time      2.88 sec, GPU time   2878.83 ms
    CPU time for grad vxc                                                2.77 sec, wall time      2.88 sec, GPU time   2879.72 ms
    CPU time for vxc total                                               2.77 sec, wall time      2.88 sec, GPU time   2881.00 ms
Number of shells for each [l, nprim] group
    [0 5] : 8
    [0 3] : 8
    [0 1] : 24
    [1 3] : 8
    [1 1] : 16
    [2 1] : 8
Number of shells for each [l, nprim] group
    [0 5] : 8
    [0 3] : 8
    [0 1] : 80
    [1 3] : 8
    [1 1] : 72
    [2 3] : 1
    [2 2] : 7
    [2 1] : 47
    [3 2] : 7
    [3 1] : 2
    [4 1] : 8
dm_factor shape (160, 29)
sp_batches = 1, ksh_batches = 11
12.902 GB free memory. nao_pair=12563 naux=876 batch_size=876 blksize=876
    CPU time for contract dm                                             0.04 sec, wall time      0.05 sec, GPU time     45.83 ms
int2c2e_kernel, nimgs = 1
    CPU time for contract int3c2e_ejk_ip1                                0.30 sec, wall time      0.30 sec, GPU time    301.38 ms
int2c2e_kernel, nimgs = 1
    CPU time for contract int2c2e_ip1                                    0.02 sec, wall time      0.02 sec, GPU time     17.40 ms
    CPU time for gradients of veff                                       3.14 sec, wall time      3.26 sec, GPU time   3260.95 ms
Computing Gradients of NR-HF Coulomb repulsion
    CPU time for gradients of 2e part                                    3.14 sec, wall time      3.26 sec, GPU time   3261.04 ms
    CPU time for gradients of electronic part                            3.85 sec, wall time      3.35 sec, GPU time   3346.83 ms
    CPU time for SCF gradients                                           3.85 sec, wall time      3.35 sec, GPU time   3347.23 ms
--------------- DFRKS gradients ---------------
         x                y                z
0 C    -0.0267610519    -0.0148900299     0.0144506744
1 C     0.0024545048     0.0098818328    -0.0038276673
2 H     0.0008221038    -0.0083066122     0.0023514365
3 C     0.0188924553     0.0000552150    -0.0060044957
4 H    -0.0107201771     0.0020440449     0.0027744608
5 C    -0.0269368323     0.0004587219     0.0084788403
6 H     0.0089030427    -0.0034948874    -0.0018498340
7 C     0.0041012661    -0.0234900662     0.0061361108
8 H    -0.0033558674     0.0085562444    -0.0017338107
9 C    -0.0018625233     0.0023850780    -0.0005729839
10 C    -0.0011802251     0.0013744529    -0.0016200972
11 H     0.0007579210     0.0071228836     0.0052709961
12 H     0.0074749476    -0.0049240893     0.0013210866
13 H    -0.0010662989     0.0019599448    -0.0082462176
14 O     0.0322009810     0.0187018295    -0.0172607649
15 H    -0.0037239476     0.0025691842     0.0003326217
----------------------------------------------


******** <class 'gpu4pyscf.df.hessian.rks.Hessian'> for <class 'gpu4pyscf.df.df_jk.DFRKS'> ********
Max_memory 4000 MB (current use 1409 MB)
Partial Hessian with density fitting approximation
Memory available 13.995636367239058 GB
Psi4 predefined JKFIT basis set def2-svp-jkfit for HF
Default auxbasis def2-svp-jkfit is applied universally
num shells = 248, num cGTOs = 746
    CPU time for intermediate variables with int2c2e and int2c2e_ip1      0.37 sec, wall time      0.02 sec, GPU time     23.75 ms
Number of shells for each [l, nctr] group
    [0 1] : 24
    [0 3] : 8
    [0 5] : 8
    [1 1] : 16
    [1 3] : 8
    [2 1] : 8
Number of shells for each [l, nctr] group
    [0 1] : 80
    [0 3] : 8
    [0 5] : 8
    [1 1] : 72
    [1 3] : 8
    [2 1] : 47
    [2 2] : 7
    [2 3] : 1
    [3 1] : 2
    [3 2] : 7
    [4 1] : 8
    CPU time for Initialize q_cond                                       0.13 sec, wall time      0.01 sec, GPU time      7.42 ms
    CPU time for Get AO pairing                                          0.02 sec, wall time      0.00 sec, GPU time      0.46 ms
    CPU time for AO indices                                              0.00 sec, wall time      0.00 sec, GPU time      0.18 ms
    CPU time for Aux AO indices                                          0.00 sec, wall time      0.00 sec, GPU time      0.36 ms
    CPU time for Get AO pairs                                            0.02 sec, wall time      0.00 sec, GPU time      0.62 ms
    CPU time for Initialize GPU cache on Device 0                        0.00 sec, wall time      0.00 sec, GPU time      0.53 ms
    CPU time for int3c2e_vjk on Device 0                                 0.20 sec, wall time      0.16 sec, GPU time    164.42 ms
    CPU time for intermediate variables with int3c2e                     0.73 sec, wall time      0.22 sec, GPU time    223.61 ms
    CPU time for Initialize GPU cache on Device 0                        0.00 sec, wall time      0.00 sec, GPU time      0.83 ms
    CPU time for int3c2e_ipip on Device 0                                1.59 sec, wall time      1.60 sec, GPU time   1603.79 ms
    CPU time for intermediate variables with int3c2e_ipip                1.59 sec, wall time      1.61 sec, GPU time   1604.41 ms
    CPU time for int3c2e_ip2_wjk on Device 0                             0.26 sec, wall time      0.26 sec, GPU time    258.52 ms
    CPU time for intermediate variables with int3c2e_ip2                 0.26 sec, wall time      0.26 sec, GPU time    262.88 ms
    CPU time for int3c2e_ip1_wjk on Device 0                             0.23 sec, wall time      0.23 sec, GPU time    227.52 ms
    CPU time for intermediate variables with int3c2e_ip1                 0.24 sec, wall time      0.24 sec, GPU time    238.90 ms
GPU Memory 13.9 GB available, 1922 aux AOs per block
    CPU time for contract int3c2e_ip1 with int2c_ip1                     0.35 sec, wall time      0.36 sec, GPU time    356.95 ms
    CPU time for contract int3c2e_ip1 with int3c2e_ip1                   0.49 sec, wall time      0.49 sec, GPU time    493.01 ms
    CPU time for intermediate variables with int2c_*                     0.67 sec, wall time      0.06 sec, GPU time     77.92 ms
    CPU time for contract int2c_*                                        0.05 sec, wall time      0.06 sec, GPU time    224.74 ms
Number of shells for each [l, nctr] group
    [0 1] : 24
    [0 3] : 8
    [0 5] : 8
    [1 1] : 16
    [1 3] : 8
    [2 1] : 8
    CPU time for Initialize q_cond                                       0.09 sec, wall time      0.00 sec, GPU time      4.86 ms
    CPU time for Get AO pairing                                          0.00 sec, wall time      0.00 sec, GPU time      0.66 ms
    CPU time for AO indices                                              0.00 sec, wall time      0.00 sec, GPU time      0.18 ms
    CPU time for Initialize GPU cache                                    0.02 sec, wall time      0.00 sec, GPU time      0.84 ms
    CPU time for hess_nuc_elec                                           0.50 sec, wall time      0.31 sec, GPU time    310.64 ms
    CPU time for get_hcore                                               0.44 sec, wall time      0.02 sec, GPU time     21.05 ms
    CPU time for hcore generate                                          1.15 sec, wall time      0.52 sec, GPU time    337.05 ms
    CPU time for hcore contribution                                      0.26 sec, wall time      0.13 sec, GPU time    125.39 ms
    CPU time for RHF partial hessian                                     6.17 sec, wall time      3.97 sec, GPU time   3969.86 ms
    CPU time for computing ej, ek                                        6.17 sec, wall time      3.97 sec, GPU time   3970.41 ms
0 - 440320 grids are calculated on Device 0.
mem_info: unallocated=11506.38 MB, used=35.15 MB, free=322.39 MB, free_blocks=30
12403.354624 MB memory is available on Device 0, block_size None
0 - 440320 grids are calculated on Device 0.
mem_info: unallocated=11404.38 MB, used=127.95 MB, free=322.09 MB, free_blocks=31
12296.087552 MB memory is available on Device 0, block_size None
    CPU time for vxc_deriv2 on Device 0                                 10.72 sec, wall time     10.82 sec, GPU time  10846.72 ms
    CPU time for RKS partial hessian                                    17.91 sec, wall time     15.83 sec, GPU time  15830.26 ms
    CPU time for hess elec                                              17.91 sec, wall time     15.83 sec, GPU time  15830.31 ms
Generate JK for RHF partial hessian
GPU memory 14.0 GB available
Psi4 predefined JKFIT basis set def2-svp-jkfit for HF
Default auxbasis def2-svp-jkfit is applied universally
num shells = 248, num cGTOs = 746
GPU Memory 14.0 GB available, 5408 aux AOs per block
Number of shells for each [l, nctr] group
    [0 1] : 24
    [0 3] : 8
    [0 5] : 8
    [1 1] : 16
    [1 3] : 8
    [2 1] : 8
Number of shells for each [l, nctr] group
    [0 1] : 80
    [0 3] : 8
    [0 5] : 8
    [1 1] : 72
    [1 3] : 8
    [2 1] : 47
    [2 2] : 7
    [2 3] : 1
    [3 1] : 2
    [3 2] : 7
    [4 1] : 8
    CPU time for Initialize q_cond                                       0.04 sec, wall time      0.00 sec, GPU time      1.73 ms
    CPU time for Get AO pairing                                          0.00 sec, wall time      0.00 sec, GPU time      0.33 ms
    CPU time for AO indices                                              0.00 sec, wall time      0.00 sec, GPU time      0.15 ms
    CPU time for Aux AO indices                                          0.00 sec, wall time      0.00 sec, GPU time      0.28 ms
    CPU time for Get AO pairs                                            0.02 sec, wall time      0.00 sec, GPU time      0.48 ms
    CPU time for Initialize GPU cache on Device 0                        0.02 sec, wall time      0.00 sec, GPU time      0.55 ms
    CPU time for Fock matrix due to int3c2e                              0.67 sec, wall time      0.21 sec, GPU time    231.17 ms
    CPU time for Initialize GPU cache on Device 0                        0.00 sec, wall time      0.00 sec, GPU time      1.05 ms
    CPU time for int3c2e_ip2_vjk on Device 0                             0.23 sec, wall time      0.23 sec, GPU time    235.52 ms
    CPU time for Fock matrix due to int3c2e_ip2                          0.26 sec, wall time      0.26 sec, GPU time    242.61 ms
GPU Memory 13.9 GB available, 5760 AOs per block
    CPU time for Fock matrix due to int2c2e_ip1                          0.28 sec, wall time      0.02 sec, GPU time    103.12 ms
    CPU time for int3c2e_ip1_vjk on Device 0                             0.44 sec, wall time      0.44 sec, GPU time    444.97 ms
    CPU time for Fock matrix due to int3c2e_ip1                          0.54 sec, wall time      0.54 sec, GPU time    453.84 ms
Number of shells for each [l, nctr] group
    [0 1] : 24
    [0 3] : 8
    [0 5] : 8
    [1 1] : 16
    [1 3] : 8
    [2 1] : 8
    CPU time for Initialize q_cond                                       0.04 sec, wall time      0.00 sec, GPU time      2.87 ms
    CPU time for Get AO pairing                                          0.00 sec, wall time      0.00 sec, GPU time      0.63 ms
    CPU time for AO indices                                              0.00 sec, wall time      0.00 sec, GPU time      0.16 ms
    CPU time for Aux AO indices                                          0.00 sec, wall time      0.00 sec, GPU time      0.12 ms
    CPU time for Get AO pairs                                            0.02 sec, wall time      0.00 sec, GPU time      0.91 ms
    CPU time for Initialize GPU cache on Device 0                        0.02 sec, wall time      0.00 sec, GPU time      1.07 ms
0 - 440320 grids are calculated on Device 0.
mem_info: unallocated=12181.69 MB, used=120.24 MB, free=6.27 MB, free_blocks=16
12780.002304 MB memory is available on Device 0, block_size None
    CPU time for vxc_deriv1 on Device 0                                  4.48 sec, wall time      4.54 sec, GPU time   4543.91 ms
    CPU time for making H1                                               6.72 sec, wall time      5.67 sec, GPU time   5668.16 ms
GPU memory 14.0 GB available
2704 atoms in each block CPHF equation
Solving CPHF equation for atoms [0:16]
Secondary grids defined for CPHF in Hessian
atom C rad-grids = 50, ang-grids = [  6   6   6   6   6   6   6   6   6   6   6   6   6   6   6  38  38  38
  38  38  38  86  86  86  86 194 194 194 194 194 194 194 194 194 194 194
 194 194  86  86  86  86  86  86  86  86  86  86  86  86]
atom H rad-grids = 50, ang-grids = [  6   6   6   6   6   6   6   6   6   6   6   6   6   6   6   6   6  38
  38  38  38  38  86  86  86  86  86 194 194 194 194 194 194 194 194 194
 194 194 194 194 194 194  86  86  86  86  86  86  86  86]
atom O rad-grids = 50, ang-grids = [  6   6   6   6   6   6   6   6   6   6   6   6   6   6  38  38  38  38
  38  38  86  86  86  86 194 194 194 194 194 194 194 194 194 194 194 194
 194  86  86  86  86  86  86  86  86  86  86  86  86  86]
    CPU time for generating atomic grids                                 0.00 sec, wall time      0.00 sec, GPU time      3.86 ms
Padding 240 grids
    CPU time for sorting grids                                           0.00 sec, wall time      0.00 sec, GPU time      0.77 ms
tot grids = 68608
0 - 68608 grids are calculated on Device 0.
mem_info: unallocated=12264.62 MB, used=42.58 MB, free=4.91 MB, free_blocks=15
12865.543168 MB memory is available on Device 0, block_size None
    CPU time for eval rho in fxc                                         0.10 sec, wall time      0.10 sec, GPU time    103.58 ms
    CPU time for eval fxc                                                0.00 sec, wall time      0.00 sec, GPU time      2.11 ms
68608 grids on Device 0
0 - 68608 grids are calculated on Device 0.
mem_info: unallocated=12208.62 MB, used=79.14 MB, free=14.88 MB, free_blocks=22
12817.271808 MB memory is available on Device 0, block_size None
    CPU time for vxc on Device 0                                         1.02 sec, wall time      1.04 sec, GPU time   1120.40 ms
    CPU time for nr_rks_fxc                                              1.10 sec, wall time      1.12 sec, GPU time   1122.31 ms
Build CDERI ...
    CPU time for 2c2e                                                    0.12 sec, wall time      0.01 sec, GPU time      6.65 ms
Number of shells for each [l, nctr] group
    [0 1] : 24
    [0 3] : 8
    [0 5] : 8
    [1 1] : 16
    [1 3] : 8
    [2 1] : 8
Number of shells for each [l, nctr] group
    [0 1] : 80
    [0 3] : 8
    [0 5] : 8
    [1 1] : 72
    [1 3] : 8
    [2 1] : 47
    [2 2] : 7
    [2 3] : 1
    [3 1] : 2
    [3 2] : 7
    [4 1] : 8
    CPU time for Initialize q_cond                                       0.03 sec, wall time      0.00 sec, GPU time      2.98 ms
    CPU time for Get AO pairing                                          0.00 sec, wall time      0.00 sec, GPU time      0.44 ms
    CPU time for AO indices                                              0.00 sec, wall time      0.00 sec, GPU time      0.17 ms
    CPU time for Aux AO indices                                          0.02 sec, wall time      0.00 sec, GPU time      0.41 ms
    CPU time for Get AO pairs                                            0.00 sec, wall time      0.00 sec, GPU time      0.64 ms
    CPU time for prepare intopt                                          0.13 sec, wall time      0.01 sec, GPU time      8.83 ms
size of aux basis 746
Saving CDERI on GPU
CDERI size 0.062 GB on Device 0
    CPU time for Initialize GPU cache on Device 0                        0.00 sec, wall time      0.00 sec, GPU time      0.44 ms
    CPU time for solve 5 / 21 on Device 0                                0.01 sec, wall time      0.00 sec, GPU time      4.13 ms
    CPU time for transfer data for 5 / 21 on Device 0                    0.00 sec, wall time      0.00 sec, GPU time      0.06 ms
    CPU time for solve 2 / 21 on Device 0                                0.00 sec, wall time      0.00 sec, GPU time      3.14 ms
    CPU time for transfer data for 2 / 21 on Device 0                    0.00 sec, wall time      0.00 sec, GPU time      0.05 ms
    CPU time for solve 4 / 21 on Device 0                                0.00 sec, wall time      0.00 sec, GPU time      3.82 ms
    CPU time for transfer data for 4 / 21 on Device 0                    0.00 sec, wall time      0.00 sec, GPU time      0.06 ms
    CPU time for solve 12 / 21 on Device 0                               0.00 sec, wall time      0.00 sec, GPU time      4.72 ms
    CPU time for transfer data for 12 / 21 on Device 0                   0.00 sec, wall time      0.00 sec, GPU time      0.06 ms
    CPU time for solve 11 / 21 on Device 0                               0.00 sec, wall time      0.00 sec, GPU time      3.59 ms
    CPU time for transfer data for 11 / 21 on Device 0                   0.00 sec, wall time      0.00 sec, GPU time      0.06 ms
    CPU time for solve 3 / 21 on Device 0                                0.00 sec, wall time      0.00 sec, GPU time      3.06 ms
    CPU time for transfer data for 3 / 21 on Device 0                    0.00 sec, wall time      0.00 sec, GPU time      0.05 ms
    CPU time for solve 1 / 21 on Device 0                                0.00 sec, wall time      0.00 sec, GPU time      2.71 ms
    CPU time for transfer data for 1 / 21 on Device 0                    0.00 sec, wall time      0.00 sec, GPU time      0.05 ms
    CPU time for solve 17 / 21 on Device 0                               0.00 sec, wall time      0.00 sec, GPU time      3.38 ms
    CPU time for transfer data for 17 / 21 on Device 0                   0.00 sec, wall time      0.00 sec, GPU time      0.05 ms
    CPU time for solve 14 / 21 on Device 0                               0.00 sec, wall time      0.00 sec, GPU time      4.51 ms
    CPU time for transfer data for 14 / 21 on Device 0                   0.00 sec, wall time      0.00 sec, GPU time      0.06 ms
    CPU time for solve 0 / 21 on Device 0                                0.00 sec, wall time      0.00 sec, GPU time      2.67 ms
    CPU time for transfer data for 0 / 21 on Device 0                    0.00 sec, wall time      0.00 sec, GPU time      0.05 ms
    CPU time for solve 16 / 21 on Device 0                               0.00 sec, wall time      0.00 sec, GPU time      2.98 ms
    CPU time for transfer data for 16 / 21 on Device 0                   0.00 sec, wall time      0.00 sec, GPU time      0.05 ms
    CPU time for solve 8 / 21 on Device 0                                0.00 sec, wall time      0.00 sec, GPU time      3.42 ms
    CPU time for transfer data for 8 / 21 on Device 0                    0.00 sec, wall time      0.00 sec, GPU time      0.06 ms
    CPU time for solve 7 / 21 on Device 0                                0.00 sec, wall time      0.00 sec, GPU time      3.12 ms
    CPU time for transfer data for 7 / 21 on Device 0                    0.00 sec, wall time      0.00 sec, GPU time      0.05 ms
    CPU time for solve 10 / 21 on Device 0                               0.00 sec, wall time      0.00 sec, GPU time      4.30 ms
    CPU time for transfer data for 10 / 21 on Device 0                   0.00 sec, wall time      0.00 sec, GPU time      0.06 ms
    CPU time for solve 20 / 21 on Device 0                               0.00 sec, wall time      0.00 sec, GPU time      4.48 ms
    CPU time for transfer data for 20 / 21 on Device 0                   0.00 sec, wall time      0.00 sec, GPU time      0.07 ms
    CPU time for solve 19 / 21 on Device 0                               0.00 sec, wall time      0.00 sec, GPU time      5.28 ms
    CPU time for transfer data for 19 / 21 on Device 0                   0.00 sec, wall time      0.00 sec, GPU time      0.07 ms
    CPU time for solve 15 / 21 on Device 0                               0.00 sec, wall time      0.00 sec, GPU time      4.55 ms
    CPU time for transfer data for 15 / 21 on Device 0                   0.00 sec, wall time      0.00 sec, GPU time      0.07 ms
    CPU time for solve 9 / 21 on Device 0                                0.00 sec, wall time      0.00 sec, GPU time      5.30 ms
    CPU time for transfer data for 9 / 21 on Device 0                    0.00 sec, wall time      0.00 sec, GPU time      0.07 ms
    CPU time for solve 13 / 21 on Device 0                               0.00 sec, wall time      0.00 sec, GPU time      5.80 ms
    CPU time for transfer data for 13 / 21 on Device 0                   0.00 sec, wall time      0.00 sec, GPU time      0.07 ms
    CPU time for solve 6 / 21 on Device 0                                0.00 sec, wall time      0.00 sec, GPU time      5.62 ms
    CPU time for transfer data for 6 / 21 on Device 0                    0.00 sec, wall time      0.00 sec, GPU time      0.08 ms
    CPU time for solve 18 / 21 on Device 0                               0.00 sec, wall time      0.00 sec, GPU time      7.29 ms
    CPU time for transfer data for 18 / 21 on Device 0                   0.01 sec, wall time      0.01 sec, GPU time      0.09 ms
    CPU time for cholesky_eri                                            0.31 sec, wall time      0.10 sec, GPU time    101.34 ms
    CPU time for init jk                                                 0.43 sec, wall time      0.11 sec, GPU time    108.10 ms
14.901 GB memory available on Device 0, block size = 64
    CPU time for vj and vk on Device 0                                   0.34 sec, wall time      0.34 sec, GPU time    366.85 ms
    CPU time for vj and vk                                               0.36 sec, wall time      0.37 sec, GPU time    367.97 ms
krylov cycle 0, r = 3.491e-01, 47 equations
Secondary grids defined for CPHF in Hessian
0 - 68608 grids are calculated on Device 0.
mem_info: unallocated=12014.56 MB, used=109.15 MB, free=166.34 MB, free_blocks=38
12772.604928 MB memory is available on Device 0, block_size None
    CPU time for eval rho in fxc                                         0.02 sec, wall time      0.02 sec, GPU time     16.96 ms
    CPU time for eval fxc                                                0.00 sec, wall time      0.00 sec, GPU time      1.37 ms
68608 grids on Device 0
0 - 68608 grids are calculated on Device 0.
mem_info: unallocated=12014.56 MB, used=138.76 MB, free=136.73 MB, free_blocks=35
12741.558784 MB memory is available on Device 0, block_size None
    CPU time for vxc on Device 0                                         0.59 sec, wall time      0.60 sec, GPU time    693.65 ms
    CPU time for nr_rks_fxc                                              0.69 sec, wall time      0.70 sec, GPU time    695.32 ms
14.910 GB memory available on Device 0, block size = 64
    CPU time for vj and vk on Device 0                                   0.20 sec, wall time      0.20 sec, GPU time    232.91 ms
    CPU time for vj and vk                                               0.23 sec, wall time      0.23 sec, GPU time    234.16 ms
krylov cycle 1, r = 6.004e-02, 30 equations
Secondary grids defined for CPHF in Hessian
0 - 68608 grids are calculated on Device 0.
mem_info: unallocated=12041.56 MB, used=105.56 MB, free=169.94 MB, free_blocks=39
12804.683264 MB memory is available on Device 0, block_size None
    CPU time for eval rho in fxc                                         0.02 sec, wall time      0.02 sec, GPU time     16.99 ms
    CPU time for eval fxc                                                0.00 sec, wall time      0.00 sec, GPU time      1.43 ms
68608 grids on Device 0
0 - 68608 grids are calculated on Device 0.
mem_info: unallocated=12041.56 MB, used=126.28 MB, free=149.21 MB, free_blocks=36
12782.9504 MB memory is available on Device 0, block_size None
    CPU time for vxc on Device 0                                         0.07 sec, wall time      0.07 sec, GPU time    170.84 ms
    CPU time for nr_rks_fxc                                              0.17 sec, wall time      0.17 sec, GPU time    172.41 ms
14.925 GB memory available on Device 0, block size = 64
    CPU time for vj and vk on Device 0                                   0.04 sec, wall time      0.04 sec, GPU time     63.66 ms
    CPU time for vj and vk                                               0.06 sec, wall time      0.06 sec, GPU time     64.79 ms
krylov cycle 2, r = 8.013e-03, 7 equations
krylov space size 85
Secondary grids defined for CPHF in Hessian
0 - 68608 grids are calculated on Device 0.
mem_info: unallocated=12042.12 MB, used=110.26 MB, free=165.23 MB, free_blocks=40
12800.340992 MB memory is available on Device 0, block_size None
    CPU time for eval rho in fxc                                         0.02 sec, wall time      0.02 sec, GPU time     17.21 ms
    CPU time for eval fxc                                                0.00 sec, wall time      0.00 sec, GPU time      1.41 ms
68608 grids on Device 0
0 - 68608 grids are calculated on Device 0.
mem_info: unallocated=12042.12 MB, used=146.82 MB, free=128.67 MB, free_blocks=36
12762.006528 MB memory is available on Device 0, block_size None
    CPU time for vxc on Device 0                                         1.00 sec, wall time      1.01 sec, GPU time   1100.62 ms
    CPU time for nr_rks_fxc                                              1.09 sec, wall time      1.10 sec, GPU time   1102.43 ms
14.901 GB memory available on Device 0, block size = 64
    CPU time for vj and vk on Device 0                                   0.34 sec, wall time      0.35 sec, GPU time    370.10 ms
    CPU time for vj and vk                                               0.37 sec, wall time      0.37 sec, GPU time    371.24 ms
    CPU time for CPHF solver                                             7.01 sec, wall time      6.66 sec, GPU time   6663.03 ms
    CPU time for solving MO1                                             7.01 sec, wall time      6.66 sec, GPU time   6663.34 ms
    CPU time for RHF hessian                                            31.78 sec, wall time     28.18 sec, GPU time  28178.72 ms
    CPU time for SCF hessian     31.78 sec, wall time     28.18 sec
Mode                                 0                   1                   2
Irrep
Freq [cm^-1]                      141.6238            178.3500            314.8560
Reduced mass [au]                   1.1734              2.9273              1.4921
Force const [Dyne/A]                0.0139              0.0549              0.0872
Char temp [K]                     203.7651            256.6060            453.0076
Normal mode                   x     y     z       x     y     z       x     y     z
       0   C                -0.00 -0.00 -0.01    0.00  0.00  0.01    0.01 -0.00  0.02
       1   C                -0.01 -0.01 -0.03   -0.02 -0.02 -0.05    0.01 -0.02  0.02
       2   H                -0.00 -0.00 -0.00   -0.02 -0.02 -0.07    0.00 -0.03  0.02
       3   C                -0.01 -0.01 -0.05   -0.01 -0.01 -0.04    0.04  0.01  0.04
       4   H                -0.03 -0.03 -0.10   -0.00 -0.00 -0.01    0.06  0.03  0.07
       5   C                -0.01 -0.01 -0.03   -0.02 -0.02 -0.07    0.02 -0.04 -0.02
       6   H                -0.01 -0.01 -0.02   -0.03 -0.03 -0.09    0.01 -0.07 -0.04
       7   C                -0.01 -0.01 -0.04   -0.02 -0.02 -0.06    0.04 -0.03  0.01
       8   H                -0.02 -0.02 -0.05   -0.02 -0.02 -0.06    0.05 -0.02  0.01
       9   C                -0.00 -0.00 -0.01   -0.01 -0.01 -0.04    0.02 -0.04 -0.04
      10   C                 0.02  0.02  0.07    0.03  0.03  0.11   -0.06  0.07  0.00
      11   H                 0.08  0.05  0.08    0.14  0.09  0.14    0.29  0.03  0.22
      12   H                 0.03  0.03  0.07    0.05  0.05  0.11   -0.23 -0.13 -0.31
      13   H                -0.03  0.01  0.12   -0.05  0.00  0.21   -0.33  0.43  0.16
      14   O                 0.00  0.01  0.02    0.04  0.04  0.12   -0.06  0.03 -0.03
      15   H                 0.28  0.25  0.80   -0.13 -0.11 -0.36   -0.02  0.09 -0.02
Mode                                 3                   4                   5
Irrep
Freq [cm^-1]                      329.0276            367.3009            426.6225
Reduced mass [au]                   2.0647              2.6994              2.6282
Force const [Dyne/A]                0.1317              0.2146              0.2818
Char temp [K]                     473.3975            528.4641            613.8148
Normal mode                   x     y     z       x     y     z       x     y     z
       0   C                 0.01 -0.02 -0.02    0.02  0.02  0.06    0.01 -0.01  0.01
       1   C                 0.01 -0.04 -0.02    0.04  0.03  0.09    0.05  0.03  0.11
       2   H                -0.00 -0.05 -0.02    0.07  0.06  0.19    0.11  0.07  0.22
       3   C                 0.02 -0.03 -0.05    0.03  0.02  0.08   -0.02 -0.05 -0.10
       4   H                 0.02 -0.02 -0.09    0.06  0.05  0.16   -0.08 -0.12 -0.27
       5   C                 0.05 -0.04  0.02   -0.01 -0.02 -0.04   -0.04 -0.02 -0.11
       6   H                 0.05 -0.05  0.04    0.00 -0.01 -0.01   -0.09 -0.06 -0.28
       7   C                 0.05 -0.04 -0.00   -0.02 -0.02 -0.06    0.02  0.03  0.11
       8   H                 0.06 -0.04 -0.01   -0.01 -0.02 -0.04    0.05  0.07  0.25
       9   C                 0.06 -0.02  0.04   -0.04 -0.04 -0.12   -0.01  0.01  0.00
      10   C                -0.08  0.09 -0.01    0.00  0.02  0.04    0.01 -0.00 -0.00
      11   H                -0.31  0.27 -0.22   -0.07  0.20 -0.09    0.00 -0.03  0.01
      12   H                -0.19  0.13  0.30    0.06  0.14  0.31    0.02 -0.00 -0.02
      13   H                 0.10 -0.03 -0.16    0.05 -0.24  0.08    0.01 -0.00 -0.00
      14   O                -0.06  0.07  0.03   -0.03 -0.01 -0.07   -0.02  0.01  0.00
      15   H                -0.03  0.14 -0.04   -0.01  0.01 -0.02   -0.02  0.03 -0.05
Mode                                 6                   7                   8
Irrep
Freq [cm^-1]                      434.2385            460.4347            506.4610
Reduced mass [au]                   3.2657              6.0841              1.8963
Force const [Dyne/A]                0.3628              0.7600              0.2866
Char temp [K]                     624.7725            662.4631            728.6846
Normal mode                   x     y     z       x     y     z       x     y     z
       0   C                -0.06  0.07 -0.00    0.07  0.06 -0.05   -0.05 -0.05 -0.14
       1   C                -0.07  0.04  0.03    0.05 -0.03 -0.01   -0.00 -0.00 -0.00
       2   H                -0.18  0.02  0.11   -0.03 -0.05  0.03    0.09  0.09  0.28
       3   C                -0.05  0.08 -0.03   -0.02  0.03 -0.01   -0.01 -0.01 -0.02
       4   H                -0.04  0.15 -0.10   -0.04 -0.06  0.03    0.10  0.10  0.29
       5   C                 0.01 -0.07 -0.00    0.02 -0.04  0.01    0.01  0.01  0.04
[...]
      12   H                 0.05 -0.01 -0.02    0.02  0.03  0.06    0.09  0.09 -0.05
      13   H                 0.01 -0.04  0.01   -0.11 -0.12  0.12    0.08  0.09 -0.05
      14   O                -0.03  0.02  0.00   -0.01 -0.01  0.01    0.08  0.09 -0.06
      15   H                -0.01  0.05 -0.01   -0.02 -0.02 -0.02    0.07  0.05 -0.04
Mode                                12                  13                  14
Irrep
Freq [cm^-1]                      757.6273            801.7103            845.5788
Reduced mass [au]                   1.4627              1.9404              5.2998
Force const [Dyne/A]                0.4947              0.7348              2.2326
Char temp [K]                    1090.0571           1153.4826           1216.5997
Normal mode                   x     y     z       x     y     z       x     y     z
       0   C                 0.02  0.03  0.08    0.05  0.05  0.14    0.02  0.02 -0.02
       1   C                 0.01  0.01  0.02   -0.02 -0.03 -0.09    0.07 -0.10  0.01
       2   H                -0.14 -0.13 -0.41    0.11  0.11  0.33   -0.06 -0.14  0.04
       3   C                -0.03 -0.04 -0.11   -0.02 -0.01 -0.05   -0.10  0.06  0.02
       4   H                 0.13  0.13  0.40    0.03  0.03  0.09   -0.13 -0.06  0.06
       5   C                 0.02  0.02  0.06   -0.02 -0.02 -0.07    0.10 -0.07 -0.01
       6   H                -0.07 -0.07 -0.21    0.15  0.15  0.45    0.12  0.03 -0.06
       7   C                -0.01 -0.01 -0.03   -0.01 -0.00 -0.02   -0.07  0.09 -0.01
       8   H                 0.13  0.13  0.41    0.07  0.07  0.19    0.02  0.12 -0.03
       9   C                -0.01 -0.01 -0.03    0.01  0.01  0.04   -0.01 -0.02  0.01
      10   C                -0.00 -0.00 -0.00    0.00  0.00  0.01    0.06  0.05 -0.03
      11   H                 0.00  0.01 -0.01   -0.07 -0.07  0.01    0.06  0.07 -0.04
      12   H                 0.00  0.00 -0.00   -0.03 -0.04 -0.05    0.07  0.06 -0.04
      13   H                -0.01 -0.02  0.01    0.06  0.07 -0.08    0.06  0.07 -0.04
      14   O                -0.00 -0.00 -0.02   -0.01 -0.01 -0.03   -0.05 -0.05  0.03
      15   H                 0.01  0.01  0.03   -0.02 -0.02 -0.03   -0.04 -0.02  0.02
Mode                                15                  16                  17
Irrep
Freq [cm^-1]                      896.7329            933.5081           1013.2336
Reduced mass [au]                   1.4653              1.4313              2.1867
Force const [Dyne/A]                0.6942              0.7349              1.3227
Char temp [K]                    1290.1990           1343.1103           1457.8176
Normal mode                   x     y     z       x     y     z       x     y     z
       0   C                 0.01  0.01  0.03    0.01  0.01  0.02   -0.01 -0.00  0.00
       1   C                -0.01 -0.02 -0.04   -0.03 -0.03 -0.10   -0.07  0.08 -0.00
       2   H                 0.07  0.06  0.20    0.16  0.15  0.48   -0.37  0.01  0.12
       3   C                -0.03 -0.03 -0.09    0.01  0.01  0.03    0.10 -0.07 -0.01
       4   H                 0.12  0.12  0.39   -0.04 -0.04 -0.13    0.05 -0.30  0.08
       5   C                 0.01  0.01  0.03    0.03  0.03  0.10    0.09 -0.06 -0.01
       6   H                -0.04 -0.04 -0.14   -0.17 -0.16 -0.51    0.06 -0.25  0.06
       7   C                 0.03  0.04  0.11   -0.01 -0.01 -0.04   -0.06  0.08 -0.01
       8   H                -0.18 -0.18 -0.56    0.07  0.07  0.22   -0.25  0.03  0.07
       9   C                -0.01 -0.01 -0.02   -0.00 -0.00 -0.01   -0.01 -0.00  0.01
      10   C                -0.00 -0.00 -0.02   -0.00 -0.00 -0.00   -0.01  0.02 -0.01
      11   H                 0.07  0.06 -0.01    0.02  0.02 -0.00   -0.00 -0.06  0.04
      12   H                 0.02  0.03  0.04    0.01  0.01  0.01    0.10  0.06 -0.05
      13   H                -0.06 -0.06  0.07   -0.02 -0.02  0.02   -0.00 -0.06  0.01
      14   O                -0.00 -0.00 -0.01   -0.00 -0.00 -0.00    0.00  0.00 -0.00
      15   H                 0.00 -0.00  0.01   -0.00 -0.00 -0.01   -0.00 -0.01  0.00
Mode                                18                  19                  20
Irrep
Freq [cm^-1]                     1031.3494           1084.2597           1087.6306
Reduced mass [au]                   1.4000              1.4582              1.1728
Force const [Dyne/A]                0.8774              1.0101              0.8174
Char temp [K]                    1483.8822           1560.0083           1564.8583
Normal mode                   x     y     z       x     y     z       x     y     z
       0   C                 0.02 -0.02  0.00    0.00 -0.00  0.00   -0.01  0.02 -0.00
       1   C                -0.01  0.06 -0.01    0.00  0.00  0.00   -0.01 -0.04  0.02
       2   H                 0.13  0.10 -0.07    0.06  0.02 -0.02   -0.40 -0.14  0.17
       3   C                -0.02 -0.02  0.01   -0.01 -0.00  0.00    0.04  0.01 -0.02
       4   H                -0.07 -0.24  0.10   -0.02 -0.03  0.02    0.11  0.30 -0.13
       5   C                -0.03  0.01  0.01   -0.01 -0.01 -0.02    0.03  0.03 -0.02
       6   H                -0.05 -0.08  0.03    0.01 -0.03  0.09    0.12  0.45 -0.17
       7   C                -0.04  0.06 -0.01   -0.01 -0.00 -0.03   -0.02 -0.04  0.02
       8   H                -0.03  0.07 -0.01    0.07  0.04  0.08   -0.35 -0.12  0.17
       9   C                 0.03 -0.04 -0.00    0.03  0.03  0.10   -0.01  0.01  0.01
      10   C                 0.07 -0.08  0.00   -0.04 -0.03 -0.11    0.03 -0.04 -0.01
      11   H                 0.09  0.35 -0.20    0.39  0.26 -0.02    0.08  0.17 -0.10
      12   H                -0.41 -0.28  0.24    0.12  0.17  0.20   -0.15 -0.10  0.13
      13   H                -0.00  0.30 -0.05   -0.36 -0.30  0.33   -0.05  0.09  0.03
      14   O                -0.00 -0.00  0.00    0.00  0.00 -0.00   -0.00 -0.00  0.00
      15   H                 0.03  0.07 -0.03    0.00  0.01 -0.01   -0.03 -0.06  0.03
Mode                                21                  22                  23
Irrep
Freq [cm^-1]                     1143.2884           1152.9214           1204.8084
Reduced mass [au]                   1.1529              1.3923              2.3115
Force const [Dyne/A]                0.8879              1.0904              1.9769
Char temp [K]                    1644.9375           1658.7972           1733.4510
Normal mode                   x     y     z       x     y     z       x     y     z
       0   C                -0.03 -0.03  0.02    0.10  0.00 -0.03    0.08  0.14 -0.07
       1   C                 0.02 -0.01 -0.01   -0.02  0.03 -0.01    0.05 -0.01 -0.01
       2   H                 0.39  0.08 -0.15   -0.24 -0.01  0.08   -0.01 -0.02  0.01
       3   C                 0.01  0.03 -0.01   -0.02  0.03 -0.00    0.01  0.03 -0.01
       4   H                 0.10  0.47 -0.18    0.02  0.22 -0.07   -0.04 -0.25  0.10
       5   C                 0.03 -0.05  0.00   -0.04  0.01  0.01   -0.05  0.00  0.02
       6   H                -0.03 -0.36  0.12   -0.08 -0.18  0.08   -0.10 -0.23  0.11
       7   C                -0.05  0.02  0.01   -0.01 -0.02  0.01    0.02 -0.06  0.01
       8   H                -0.47 -0.08  0.18   -0.01 -0.01  0.01   -0.31 -0.15  0.15
       9   C                -0.00  0.00 -0.00    0.00 -0.01  0.00    0.03  0.03 -0.02
      10   C                 0.00 -0.00  0.00   -0.00  0.01 -0.00   -0.01 -0.01  0.01
      11   H                 0.00  0.00  0.00   -0.00 -0.02  0.01   -0.02 -0.05  0.02
      12   H                -0.01 -0.01  0.01    0.02  0.02 -0.01   -0.05 -0.03  0.03
      13   H                 0.00  0.01 -0.01    0.00 -0.02 -0.00   -0.02 -0.03  0.02
      14   O                 0.02  0.01 -0.01   -0.01 -0.08  0.03   -0.05 -0.03  0.03
      15   H                 0.00 -0.02  0.01    0.28  0.61 -0.29   -0.14 -0.23  0.12
Mode                                24                  25                  26
Irrep
Freq [cm^-1]                     1249.3894           1297.7589           1365.7847
Reduced mass [au]                   3.2522              1.3427              6.3202
Force const [Dyne/A]                2.9911              1.3323              6.9462
Char temp [K]                    1797.5931           1867.1861           1965.0601
Normal mode                   x     y     z       x     y     z       x     y     z
       0   C                -0.03 -0.06  0.03   -0.03  0.01  0.01   -0.07  0.07  0.00
       1   C                 0.01 -0.07  0.02   -0.06 -0.00  0.02    0.09  0.03 -0.04
       2   H                -0.19 -0.12  0.10    0.28  0.08 -0.12   -0.02  0.01  0.00
       3   C                -0.08 -0.01  0.03   -0.02  0.05 -0.01   -0.03 -0.10  0.04
       4   H                -0.09 -0.05  0.05   -0.10 -0.30  0.13    0.01  0.07 -0.03
       5   C                 0.03  0.04 -0.03   -0.00 -0.03  0.01   -0.02 -0.12  0.04
       6   H                -0.00 -0.18  0.06    0.09  0.41 -0.16    0.02  0.12 -0.05
       7   C                 0.04  0.04 -0.03    0.04  0.02 -0.02    0.10  0.03 -0.04
       8   H                -0.09  0.02  0.02   -0.38 -0.08  0.15   -0.07 -0.01  0.03
       9   C                 0.11  0.13 -0.07    0.08 -0.05 -0.01   -0.08  0.07  0.00
      10   C                -0.04 -0.05  0.03   -0.03  0.02  0.00    0.02 -0.00 -0.00
      11   H                -0.11 -0.14  0.05   -0.01 -0.09  0.07   -0.04  0.02 -0.05
      12   H                -0.18 -0.12  0.09    0.04  0.04 -0.04   -0.06 -0.03  0.03
      13   H                -0.10 -0.11  0.10    0.01 -0.11  0.00   -0.04  0.06  0.04
      14   O                 0.02  0.02 -0.01    0.02 -0.02  0.00    0.00 -0.01  0.00
      15   H                 0.04  0.06 -0.03    0.13  0.25 -0.12    0.08  0.16 -0.08
Mode                                27                  28                  29
Irrep
Freq [cm^-1]                     1400.8399           1443.1749           1470.8017
Reduced mass [au]                   1.3254              2.0087              1.0597
Force const [Dyne/A]                1.5324              2.4650              1.3506
Char temp [K]                    2015.4967           2076.4074           2116.1562
Normal mode                   x     y     z       x     y     z       x     y     z
       0   C                -0.01 -0.01  0.00   -0.06  0.06  0.00    0.01 -0.01 -0.00
       1   C                 0.02 -0.00 -0.00   -0.05 -0.06  0.04    0.00  0.01 -0.01
       2   H                -0.06 -0.02  0.03    0.19 -0.01 -0.06   -0.03  0.01  0.00
       3   C                -0.02 -0.01  0.01    0.05  0.04 -0.03   -0.01 -0.00  0.00
       4   H                -0.03 -0.02  0.01    0.01 -0.18  0.05   -0.00  0.03 -0.01
       5   C                -0.01  0.01 -0.00    0.07  0.01 -0.03   -0.01 -0.01  0.01
       6   H                -0.02 -0.03  0.02    0.05 -0.12  0.02   -0.01  0.03 -0.01
       7   C                 0.03  0.01 -0.01   -0.01 -0.06  0.02   -0.00  0.01 -0.00
       8   H                -0.07 -0.01  0.03    0.12 -0.04 -0.02   -0.01  0.01  0.01
       9   C                 0.02  0.02 -0.01   -0.06  0.08 -0.01    0.01 -0.02 -0.01
      10   C                -0.10 -0.08  0.05    0.02 -0.06  0.01   -0.01 -0.01 -0.05
      11   H                 0.36  0.36  0.06   -0.21  0.08 -0.18    0.08 -0.46  0.24
      12   H                 0.38  0.16 -0.08    0.21  0.08  0.06    0.07  0.26  0.63
      13   H                 0.26  0.22 -0.41   -0.20  0.34  0.09   -0.06  0.40 -0.12
      14   O                 0.00  0.00 -0.00    0.01 -0.03  0.00   -0.00  0.00 -0.00
      15   H                 0.00  0.01 -0.00    0.10  0.18 -0.09   -0.02 -0.03  0.02
Mode                                30                  31                  32
Irrep
Freq [cm^-1]                     1479.7340           1531.4541           1655.4616
Reduced mass [au]                   1.3180              3.3350              7.1794
Force const [Dyne/A]                1.7003              4.6085             11.5925
Char temp [K]                    2129.0078           2203.4215           2381.8407
Normal mode                   x     y     z       x     y     z       x     y     z
       0   C                -0.05  0.06 -0.00    0.08  0.07 -0.05    0.03 -0.10  0.02
       1   C                -0.03 -0.04  0.02   -0.09  0.00  0.03    0.03  0.07 -0.03
       2   H                 0.12 -0.01 -0.04    0.19  0.08 -0.09   -0.07  0.05  0.00
       3   C                 0.04 -0.00 -0.01   -0.00 -0.10  0.03    0.02  0.12 -0.05
       4   H                 0.04 -0.05  0.00    0.08  0.23 -0.10   -0.03 -0.10  0.04
       5   C                 0.04  0.00 -0.01    0.01 -0.07  0.02   -0.02 -0.14  0.05
       6   H                 0.04 -0.05  0.00    0.07  0.20 -0.09    0.04  0.14 -0.06
       7   C                -0.03 -0.04  0.02   -0.08  0.02  0.02   -0.04 -0.06  0.03
       8   H                 0.14  0.00 -0.05    0.18  0.10 -0.09    0.08 -0.04 -0.01
       9   C                -0.05  0.06 -0.01    0.10  0.06 -0.05   -0.00  0.11 -0.03
      10   C                -0.01  0.02 -0.01   -0.03 -0.03  0.02   -0.01 -0.02  0.01
      11   H                 0.42 -0.07  0.26   -0.05  0.01 -0.01    0.01  0.02  0.00
      12   H                -0.38 -0.15  0.15    0.06  0.01 -0.02   -0.03 -0.03  0.01
      13   H                 0.31 -0.28 -0.23   -0.04  0.02  0.02    0.01 -0.01 -0.01
      14   O                 0.01 -0.02  0.00   -0.01 -0.01  0.01   -0.00  0.01 -0.00
      15   H                 0.06  0.11 -0.06   -0.04 -0.06  0.03   -0.03 -0.06  0.03
Mode                                33                  34                  35
Irrep
Freq [cm^-1]                     1669.7813           2978.1588           3060.4293
Reduced mass [au]                   6.7979              1.0331              1.1052
Force const [Dyne/A]               11.1672              5.3989              6.0991
Char temp [K]                    2402.4435           4284.9074           4403.2764
Normal mode                   x     y     z       x     y     z       x     y     z
       0   C                -0.13  0.06  0.02   -0.00 -0.00  0.00    0.00  0.00 -0.00
       1   C                 0.12 -0.00 -0.04    0.00 -0.00 -0.00   -0.00  0.00  0.00
       2   H                -0.09 -0.06  0.05   -0.00  0.01 -0.00    0.00  0.00 -0.00
       3   C                 0.06 -0.01 -0.02   -0.00  0.00  0.00   -0.00 -0.00 -0.00
       4   H                 0.06 -0.04 -0.01    0.01 -0.00 -0.00    0.00 -0.00 -0.00
       5   C                -0.05  0.00  0.02   -0.00 -0.00  0.00    0.00  0.00  0.00
       6   H                -0.06  0.03  0.01    0.01  0.00 -0.00   -0.00 -0.00 -0.00
       7   C                -0.12 -0.01  0.04   -0.00 -0.00  0.00   -0.00 -0.00 -0.00
       8   H                 0.11  0.05 -0.05   -0.00  0.02 -0.00   -0.00 -0.00 -0.00
       9   C                 0.11 -0.04 -0.02   -0.00 -0.00  0.00   -0.00 -0.00 -0.00
      10   C                -0.01 -0.00  0.00    0.04  0.03 -0.02   -0.02 -0.03 -0.08
      11   H                -0.05 -0.03 -0.00   -0.25  0.25  0.48   -0.27  0.25  0.48
      12   H                 0.06  0.03 -0.02    0.25 -0.42  0.14    0.05 -0.10  0.02
      13   H                -0.03 -0.00  0.03   -0.41 -0.13 -0.41    0.50  0.16  0.48
      14   O                 0.01 -0.01  0.00   -0.00  0.00  0.00   -0.00 -0.00 -0.00
      15   H                 0.06  0.11 -0.06    0.01 -0.00 -0.00    0.00 -0.00 -0.00
Mode                                36                  37                  38
Irrep
Freq [cm^-1]                     3075.4749           3329.4388           3331.3557
Reduced mass [au]                   1.1051              1.0891              1.0888
Force const [Dyne/A]                6.1583              7.1133              7.1196
Char temp [K]                    4424.9236           4790.3211           4793.0791
Normal mode                   x     y     z       x     y     z       x     y     z
       0   C                -0.00  0.00 -0.00   -0.00  0.00  0.00   -0.00 -0.00  0.00
       1   C                 0.00 -0.00  0.00    0.02 -0.05  0.01    0.01 -0.03  0.01
       2   H                -0.00  0.01 -0.00   -0.19  0.56 -0.12   -0.13  0.39 -0.08
       3   C                 0.00 -0.00 -0.00    0.02 -0.01 -0.00   -0.03  0.01  0.01
       4   H                -0.01  0.00  0.00   -0.26  0.08  0.06    0.41 -0.13 -0.09
       5   C                -0.00  0.00  0.00   -0.04  0.01  0.01   -0.02  0.01  0.00
       6   H                 0.00  0.00 -0.00    0.52 -0.15 -0.12    0.26 -0.08 -0.06
       7   C                -0.00  0.00 -0.00   -0.01  0.03 -0.01    0.02 -0.05  0.01
       8   H                 0.00 -0.02  0.01    0.13 -0.38  0.08   -0.21  0.63 -0.13
       9   C                 0.00 -0.00 -0.00    0.00 -0.00  0.00   -0.00 -0.00  0.00
      10   C                 0.06 -0.07  0.00   -0.00  0.00 -0.00    0.00 -0.00  0.00
      11   H                -0.18  0.17  0.36    0.00 -0.00 -0.01    0.00 -0.00 -0.01
      12   H                -0.39  0.67 -0.22    0.01 -0.01  0.00   -0.01  0.02 -0.01
      13   H                -0.16 -0.07 -0.17    0.00  0.00  0.00    0.01  0.00  0.01
      14   O                 0.00 -0.00 -0.00   -0.00 -0.00  0.00    0.00 -0.00 -0.00
      15   H                -0.00  0.00  0.00    0.00 -0.00  0.00   -0.00  0.00 -0.00
Mode                                39                  40                  41
Irrep
Freq [cm^-1]                     3342.5351           3345.9878           3971.2231
Reduced mass [au]                   1.0960              1.0958              1.0665
Force const [Dyne/A]                7.2143              7.2283              9.9098
Char temp [K]                    4809.1638           4814.1315           5713.7059
Normal mode                   x     y     z       x     y     z       x     y     z
       0   C                -0.00  0.00 -0.00   -0.00 -0.00  0.00    0.00 -0.00  0.00
       1   C                 0.01 -0.04  0.01    0.01 -0.03  0.01   -0.00  0.00  0.00
       2   H                -0.15  0.46 -0.10   -0.11  0.34 -0.07   -0.00  0.00 -0.00
       3   C                 0.04 -0.01 -0.01   -0.05  0.01  0.01   -0.00 -0.00  0.00
       4   H                -0.46  0.14  0.11    0.59 -0.18 -0.14    0.00  0.00 -0.00
       5   C                 0.05 -0.01 -0.01    0.04 -0.01 -0.01    0.00 -0.00  0.00
       6   H                -0.55  0.16  0.13   -0.39  0.11  0.09   -0.00  0.00  0.00
       7   C                 0.01 -0.02  0.01   -0.01  0.04 -0.01   -0.00  0.00 -0.00
       8   H                -0.08  0.24 -0.05    0.14 -0.42  0.09    0.00 -0.01  0.00
       9   C                -0.00  0.00 -0.00    0.00  0.00 -0.00    0.00  0.00 -0.00
      10   C                -0.00  0.00 -0.00   -0.00  0.00  0.00   -0.00  0.00 -0.00
      11   H                 0.00 -0.00 -0.00   -0.00 -0.00 -0.00   -0.00  0.00  0.00
      12   H                 0.00 -0.00  0.00    0.00 -0.00  0.00    0.00 -0.01  0.00
      13   H                 0.00 -0.00  0.00   -0.00 -0.00  0.00   -0.00 -0.00 -0.00
      14   O                 0.00 -0.00  0.00    0.00  0.00 -0.00    0.05 -0.03 -0.01
      15   H                -0.00 -0.00  0.00    0.01  0.00 -0.00   -0.85  0.44  0.16
temperature 298.1500 [K]
pressure 101325.00 [Pa]
Rotational constants [GHz] 5.41054 1.45038 1.15253
Symmetry number 1
Zero-point energy (ZPE) 0.13263 [Eh]   348207.705 [J/mol]
                           tot       elec      trans        rot        vib
Entropy [J/mol/K]       344.242      0.000    167.156    117.007     60.079
Cv [J/mol/K]            118.191      0.000     12.472     12.472     93.248
Cp [J/mol/K]            126.506      0.000     20.786     12.472     93.248
Internal energy [J/mol]                      3718.434   3718.434 359605.101
Internal energy [Eh]   -345.99032  -346.13012
Enthalpy [J/mol]                             6197.391   3718.434 359605.101
Enthalpy [Eh]          -345.98938
Gibbs free energy [J/mol]                  -43640.191 -31167.325 341692.603
Gibbs free energy [Eh] -346.02847
