#INFO: **** input file is /home/ericb/mmml/.venv/bin/mmml ****
#!/home/ericb/mmml/.venv/bin/python3
# -*- coding: utf-8 -*-
import sys
from mmml.cli.__main__ import main
if __name__ == "__main__":
    if sys.argv[0].endswith("-script.pyw"):
        sys.argv[0] = sys.argv[0][:-11]
    elif sys.argv[0].endswith(".exe"):
        sys.argv[0] = sys.argv[0][:-4]
    sys.exit(main())
#INFO: ******************** input file end ********************


System: uname_result(system='Linux', node='nobara-pc', release='7.0.1-200.nobara.fc43.x86_64', version='#1 SMP PREEMPT_DYNAMIC Wed Apr 22 19:53:20 UTC 2026', machine='x86_64')  Threads 24
Python 3.13.11 (main, Jan 28 2026, 00:01:45) [Clang 21.1.4 ]
numpy 2.4.3  scipy 1.17.1  h5py 3.16.0
Date: Tue May  5 21:21:56 2026
PySCF version 2.12.1
PySCF path  /home/ericb/mmml/.venv/lib/python3.13/site-packages/pyscf/__init__.py
CUDA Environment
    CuPy 14.0.1
    CUDA Path /home/ericb/mmml/.venv/lib/python3.13/site-packages/nvidia/cu13
    CUDA Build Version 13000
    CUDA Driver Version 13020
    CUDA Runtime Version 13000
CUDA toolkit
    cuSolver (12, 1, 0)
    cuBLAS 130300
    cuTENSOR None
Device info
    Device name b'NVIDIA GeForce RTX 4060 Ti'
    Device global memory 15.58 GB
    CuPy memory fraction 0.9
    Num. Devices 1
GPU4PySCF 1.6.1
GPU4PySCF path  /home/ericb/mmml/.venv/lib/python3.13/site-packages/gpu4pyscf

[CONFIG] conf_file None
[INPUT] verbose = 6
[INPUT] max_memory = 4000 
[INPUT] num. atoms = 12
[INPUT] num. electrons = 42
[INPUT] charge = 0
[INPUT] spin (= nelec alpha-beta = 2S) = 0
[INPUT] symmetry False subgroup None
[INPUT] Mole.unit = Ang
[INPUT] Symbol           X                Y                Z      unit          X                Y                Z       unit  Magmom
[INPUT]  1 C      1.670716530000  -0.101831880000   1.575417390000 AA    3.157196673484  -0.192434363950   2.977107398977 Bohr   0.0
[INPUT]  2 H      2.459373560000  -0.555412530000   2.159788700000 AA    4.647542466397  -1.049577567852   4.081409129930 Bohr   0.0
[INPUT]  3 C      1.241942910000  -0.706658180000   0.385611620000 AA    2.346931962245  -1.335390423884   0.728700352250 Bohr   0.0
[INPUT]  4 H      1.701008410000  -1.628328310000   0.053522650000 AA    3.214440030482  -3.077094546776   0.101143149961 Bohr   0.0
[INPUT]  5 C      1.073451710000   1.089672010000   2.006742800000 AA    2.028529739846   2.059181664504   3.792194294443 Bohr   0.0
[INPUT]  6 H      1.402242610000   1.555780480000   2.927551040000 AA    2.649854493095   2.939999017144   5.532269681286 Bohr   0.0
[INPUT]  7 C      0.222314100000  -0.119422090000  -0.372708980000 AA    0.420112762629  -0.225675043323  -0.704317896366 Bohr   0.0
[INPUT]  8 H     -0.107585690000  -0.585771760000  -1.289357910000 AA   -0.203307489022  -1.106948197904  -2.436533326442 Bohr   0.0
[INPUT]  9 C      0.053577970000   1.682214920000   1.250778150000 AA    0.101247689610   3.178925481457   2.363628146090 Bohr   0.0
[INPUT] 10 H     -0.403566930000   2.598031120000   1.581860710000 AA   -0.762630970632   4.909567279897   2.989283509110 Bohr   0.0
[INPUT] 11 C     -0.367738620000   1.074405860000   0.059296610000 AA   -0.694925277226   2.030332822028   0.112054353015 Bohr   0.0
[INPUT] 12 H     -1.157137810000   1.532527540000  -0.529559550000 AA   -2.186673549279   2.896057328953  -1.000722516148 Bohr   0.0
[INPUT] ---------------- BASIS SET ---------------- 
[INPUT] l, kappa, [nprim/nctr], expnt,             c_1 c_2 ...
[INPUT] C
[INPUT] 0    0    [5    /1   ]  1238.4016938      0.0054568832082
                                186.29004992      0.040638409211
                                42.251176346      0.18025593888
                                11.676557932      0.46315121755
                                3.5930506482      0.44087173314
[INPUT] 0    0    [1    /1   ]  0.40245147363        1
[INPUT] 0    0    [1    /1   ]  0.13090182668        1
[INPUT] 1    0    [3    /1   ]  9.4680970621      0.038387871728
                                2.0103545142      0.21117025112
                                0.54771004707     0.51328172114
[INPUT] 1    0    [1    /1   ]  0.15268613795        1
[INPUT] 2    0    [1    /1   ]  0.8                  1
[INPUT] H
[INPUT] 0    0    [3    /1   ]  13.010701         0.019682158
                                1.9622572         0.13796524
                                0.44453796        0.47831935
[INPUT] 0    0    [1    /1   ]  0.12194962           1
[INPUT] 1    0    [1    /1   ]  0.8                  1

nuclear repulsion = 202.807277685621
number of shells = 54
number of NR pGTOs = 186
number of NR cGTOs = 114
basis = def2-SVP
ecp = {}
CPU time:         4.54


******** <class 'gpu4pyscf.df.df_jk.DFRKS'> ********
method = DFRKS
initial guess = minao
damping factor = None
level_shift factor = None
DIIS = <class 'gpu4pyscf.scf.diis.CDIIS'>
diis_start_cycle = 1
diis_space = 8
diis_damp = 0
SCF conv_tol = 1e-10
SCF conv_tol_grad = None
SCF max_cycles = 50
direct_scf = False
XC library gpu4pyscf.dft.libxc version 7.0.0 (CUDA)
    unable to decode the reference due to https://github.com/NVIDIA/cuda-python/issues/29
XC functionals = PBE0
radial grids: 
Treutler-Ahlrichs [JCP 102, 346 (1995); DOI:10.1063/1.469408] (M4) radial grids

becke partition: Becke, JCP 88, 2547 (1988); DOI:10.1063/1.454033
pruning grids: <function nwchem_prune at 0x7f8fb4a4af20>
grids dens level: 3
symmetrized grids: False
atomic radii adjust function: <function treutler_atomic_radii_adjust at 0x7f8fb4a4b060>
User specified grid scheme (99, 590)
small_rho_cutoff = 1e-07
Set gradient conv threshold to 1e-05
    CPU time for generating initial guess                                0.50 sec, wall time      0.07 sec, GPU time     65.40 ms
Number of shells for each [l, nprim] group
    [0 5] : 6
    [0 3] : 6
    [0 1] : 18
    [1 3] : 6
    [1 1] : 12
    [2 1] : 6
sp_blocks = 21, ksh_blocks = 1, shm_size = 59512 B
    CPU time for processing contract_int3c2e_auxvec                      0.00 sec, wall time      0.00 sec, GPU time      3.85 ms
Number of shells for each [l, nprim] group
    [0 5] : 6
    [0 3] : 6
    [0 1] : 18
    [1 3] : 6
    [1 1] : 12
    [2 1] : 6
Number of shells for each [l, nprim] group
    [0 5] : 6
    [0 3] : 6
    [0 1] : 18
    [1 3] : 6
    [1 1] : 12
    [2 1] : 6
    CPU time for hcore                                                   0.10 sec, wall time      0.06 sec, GPU time     62.78 ms
atom C rad-grids = 99, ang-grids = [ 50  50  50  50  50  50  50  50  50  50  50  50  50  50  50  50  50  50
  50  50  50  50  50  50  50  50  50  50  50  50  86  86  86  86  86  86
  86  86  86  86  86  86 434 434 434 434 434 434 434 434 434 590 590 590
 590 590 590 590 590 590 590 590 590 590 590 590 590 590 590 590 590 590
 590 590 590 590 590 434 434 434 434 434 434 434 434 434 434 434 434 434
 434 434 434 434 434 434 434 434 434]
atom H rad-grids = 99, ang-grids = [ 50  50  50  50  50  50  50  50  50  50  50  50  50  50  50  50  50  50
  50  50  50  50  50  50  50  50  50  50  50  50  86  86  86  86  86  86
  86 434 434 434 434 434 434 434 434 434 434 590 590 590 590 590 590 590
 590 590 590 590 590 590 590 590 590 590 590 590 590 590 590 590 590 590
 590 590 434 434 434 434 434 434 434 434 434 434 434 434 434 434 434 434
 434 434 434 434 434 434 434 434 434]
    CPU time for generating atomic grids                                 0.00 sec, wall time      0.00 sec, GPU time     11.68 ms
Padding 40 grids
    CPU time for sorting grids                                           0.02 sec, wall time      0.02 sec, GPU time     16.84 ms
tot grids = 387328
Number of shells for each [l, nctr] group
    [0 1] : 18
    [0 3] : 6
    [0 5] : 6
    [1 1] : 12
    [1 3] : 6
    [2 1] : 6
0 - 387328 grids are calculated on Device 0.
mem_info: unallocated=12360.94 MB, used=19.64 MB, free=24.47 MB, free_blocks=15
12987.03872 MB memory is available on Device 0, block_size None
    CPU time for eval rho                                                0.06 sec, wall time      0.06 sec, GPU time     77.19 ms
Drop grids 54429
prune_by_density_: 157 padding grids
    CPU time for setting up grids                                        0.11 sec, wall time      0.11 sec, GPU time    110.45 ms
333056 grids on Device 0
0 - 333056 grids are calculated on Device 0.
mem_info: unallocated=12382.94 MB, used=30.78 MB, free=32.36 MB, free_blocks=17
13018.382336 MB memory is available on Device 0, block_size None
    CPU time for eval rho on Device 0                                    0.05 sec, wall time      0.05 sec, GPU time     66.38 ms
    CPU time for eval vxc on Device 0                                    0.07 sec, wall time      0.07 sec, GPU time     49.91 ms
0 - 333056 grids are calculated on Device 0.
mem_info: unallocated=12340.94 MB, used=42.47 MB, free=52.46 MB, free_blocks=19
12995.41504 MB memory is available on Device 0, block_size None
    CPU time for eval integration on 0                                   0.02 sec, wall time      0.02 sec, GPU time     50.05 ms
    CPU time for nr_rks                                                  0.17 sec, wall time      0.17 sec, GPU time    169.14 ms
nelec by numeric integration = 41.97768479337454
    CPU time for vxc                                                     0.28 sec, wall time      0.28 sec, GPU time    279.70 ms
Build CDERI ...
Psi4 predefined JKFIT basis set def2-svp-jkfit for HF
Default auxbasis def2-svp-jkfit is applied universally
num shells = 186, num cGTOs = 558
    CPU time for 2c2e                                                    0.10 sec, wall time      0.01 sec, GPU time      9.70 ms
Number of shells for each [l, nctr] group
    [0 1] : 18
    [0 3] : 6
    [0 5] : 6
    [1 1] : 12
    [1 3] : 6
    [2 1] : 6
Number of shells for each [l, nctr] group
    [0 1] : 60
    [0 3] : 6
    [0 5] : 6
    [1 1] : 54
    [1 3] : 6
    [2 1] : 36
    [2 2] : 6
    [3 2] : 6
    [4 1] : 6
    CPU time for Initialize q_cond                                       0.12 sec, wall time      0.01 sec, GPU time      5.84 ms
    CPU time for Get AO pairing                                          0.00 sec, wall time      0.00 sec, GPU time      0.43 ms
    CPU time for AO indices                                              0.00 sec, wall time      0.00 sec, GPU time      0.15 ms
    CPU time for Aux AO indices                                          0.00 sec, wall time      0.00 sec, GPU time      0.29 ms
    CPU time for Get AO pairs                                            0.02 sec, wall time      0.00 sec, GPU time      0.66 ms
    CPU time for prepare intopt                                          0.21 sec, wall time      0.01 sec, GPU time      9.66 ms
size of aux basis 558
Saving CDERI on GPU
CDERI size 0.027 GB on Device 0
    CPU time for Initialize GPU cache on Device 0                        0.00 sec, wall time      0.00 sec, GPU time      0.78 ms
    CPU time for solve 5 / 21 on Device 0                                0.04 sec, wall time      0.04 sec, GPU time     43.41 ms
    CPU time for transfer data for 5 / 21 on Device 0                    0.00 sec, wall time      0.00 sec, GPU time      0.36 ms
    CPU time for solve 2 / 21 on Device 0                                0.00 sec, wall time      0.00 sec, GPU time      2.40 ms
    CPU time for transfer data for 2 / 21 on Device 0                    0.00 sec, wall time      0.00 sec, GPU time      0.06 ms
    CPU time for solve 4 / 21 on Device 0                                0.00 sec, wall time      0.00 sec, GPU time      2.56 ms
    CPU time for transfer data for 4 / 21 on Device 0                    0.00 sec, wall time      0.00 sec, GPU time      0.09 ms
    CPU time for solve 1 / 21 on Device 0                                0.00 sec, wall time      0.00 sec, GPU time      2.07 ms
    CPU time for transfer data for 1 / 21 on Device 0                    0.00 sec, wall time      0.00 sec, GPU time      0.05 ms
    CPU time for solve 3 / 21 on Device 0                                0.00 sec, wall time      0.00 sec, GPU time      1.99 ms
    CPU time for transfer data for 3 / 21 on Device 0                    0.00 sec, wall time      0.00 sec, GPU time      0.05 ms
    CPU time for solve 11 / 21 on Device 0                               0.00 sec, wall time      0.00 sec, GPU time      2.63 ms
    CPU time for transfer data for 11 / 21 on Device 0                   0.00 sec, wall time      0.00 sec, GPU time      0.06 ms
    CPU time for solve 12 / 21 on Device 0                               0.00 sec, wall time      0.00 sec, GPU time      3.07 ms
    CPU time for transfer data for 12 / 21 on Device 0                   0.00 sec, wall time      0.00 sec, GPU time      0.05 ms
    CPU time for solve 0 / 21 on Device 0                                0.00 sec, wall time      0.00 sec, GPU time      1.71 ms
    CPU time for transfer data for 0 / 21 on Device 0                    0.00 sec, wall time      0.00 sec, GPU time      0.05 ms
    CPU time for solve 14 / 21 on Device 0                               0.00 sec, wall time      0.00 sec, GPU time      3.99 ms
    CPU time for transfer data for 14 / 21 on Device 0                   0.00 sec, wall time      0.00 sec, GPU time      0.05 ms
    CPU time for solve 16 / 21 on Device 0                               0.00 sec, wall time      0.00 sec, GPU time      2.32 ms
    CPU time for transfer data for 16 / 21 on Device 0                   0.00 sec, wall time      0.00 sec, GPU time      0.05 ms
    CPU time for solve 17 / 21 on Device 0                               0.00 sec, wall time      0.00 sec, GPU time      2.39 ms
    CPU time for transfer data for 17 / 21 on Device 0                   0.00 sec, wall time      0.00 sec, GPU time      0.05 ms
    CPU time for solve 8 / 21 on Device 0                                0.00 sec, wall time      0.00 sec, GPU time      2.20 ms
    CPU time for transfer data for 8 / 21 on Device 0                    0.00 sec, wall time      0.00 sec, GPU time      0.05 ms
    CPU time for solve 7 / 21 on Device 0                                0.00 sec, wall time      0.00 sec, GPU time      1.93 ms
    CPU time for transfer data for 7 / 21 on Device 0                    0.00 sec, wall time      0.00 sec, GPU time      0.05 ms
    CPU time for solve 10 / 21 on Device 0                               0.00 sec, wall time      0.00 sec, GPU time      2.29 ms
    CPU time for transfer data for 10 / 21 on Device 0                   0.00 sec, wall time      0.00 sec, GPU time      0.05 ms
    CPU time for solve 20 / 21 on Device 0                               0.00 sec, wall time      0.00 sec, GPU time      3.64 ms
    CPU time for transfer data for 20 / 21 on Device 0                   0.00 sec, wall time      0.00 sec, GPU time      0.06 ms
    CPU time for solve 15 / 21 on Device 0                               0.00 sec, wall time      0.00 sec, GPU time      2.13 ms
    CPU time for transfer data for 15 / 21 on Device 0                   0.00 sec, wall time      0.00 sec, GPU time      0.05 ms
    CPU time for solve 19 / 21 on Device 0                               0.00 sec, wall time      0.00 sec, GPU time      3.08 ms
    CPU time for transfer data for 19 / 21 on Device 0                   0.00 sec, wall time      0.00 sec, GPU time      0.05 ms
    CPU time for solve 6 / 21 on Device 0                                0.00 sec, wall time      0.00 sec, GPU time      2.77 ms
    CPU time for transfer data for 6 / 21 on Device 0                    0.00 sec, wall time      0.00 sec, GPU time      0.06 ms
    CPU time for solve 13 / 21 on Device 0                               0.00 sec, wall time      0.00 sec, GPU time      3.12 ms
    CPU time for transfer data for 13 / 21 on Device 0                   0.00 sec, wall time      0.00 sec, GPU time      0.06 ms
    CPU time for solve 9 / 21 on Device 0                                0.00 sec, wall time      0.00 sec, GPU time      2.74 ms
    CPU time for transfer data for 9 / 21 on Device 0                    0.00 sec, wall time      0.00 sec, GPU time      0.06 ms
    CPU time for solve 18 / 21 on Device 0                               0.00 sec, wall time      0.00 sec, GPU time      2.93 ms
    CPU time for transfer data for 18 / 21 on Device 0                   0.00 sec, wall time      0.00 sec, GPU time      0.07 ms
    CPU time for cholesky_eri                                            0.40 sec, wall time      0.11 sec, GPU time    114.09 ms
    CPU time for init jk                                                 0.49 sec, wall time      0.12 sec, GPU time    124.08 ms
15.002 GB memory available on Device 0, block size = 64
    CPU time for vj and vk on Device 0                                   0.01 sec, wall time      0.01 sec, GPU time     21.60 ms
    CPU time for vj and vk                                               0.02 sec, wall time      0.02 sec, GPU time     23.22 ms
    CPU time for veff                                                    0.52 sec, wall time      0.15 sec, GPU time    148.79 ms
E1 = -709.6674295633576  Ecoul = 308.788111966164  Exc = -34.5567461585931
init E= -232.628786070166
cond(S) = 19418.40167698445
    CPU time for SCF initialization                                      1.41 sec, wall time      0.58 sec, GPU time    581.17 ms
    CPU time for DIIS                                                    0.00 sec, wall time      0.00 sec, GPU time      0.28 ms
    CPU time for eig                                                     0.00 sec, wall time      0.00 sec, GPU time      3.58 ms
  HOMO = -0.30477255806547  LUMO = -0.0887427141519804
333056 grids on Device 0
0 - 333056 grids are calculated on Device 0.
mem_info: unallocated=12290.94 MB, used=63.65 MB, free=73.07 MB, free_blocks=20
12964.59776 MB memory is available on Device 0, block_size None
    CPU time for eval rho on Device 0                                    0.02 sec, wall time      0.02 sec, GPU time     62.84 ms
    CPU time for eval vxc on Device 0                                    0.04 sec, wall time      0.04 sec, GPU time      2.20 ms
0 - 333056 grids are calculated on Device 0.
mem_info: unallocated=12282.94 MB, used=75.32 MB, free=61.39 MB, free_blocks=20
12943.970304 MB memory is available on Device 0, block_size None
    CPU time for eval integration on 0                                   0.01 sec, wall time      0.01 sec, GPU time     43.24 ms
    CPU time for nr_rks                                                  0.11 sec, wall time      0.11 sec, GPU time    110.30 ms
nelec by numeric integration = 41.99999601357901
    CPU time for vxc                                                     0.11 sec, wall time      0.11 sec, GPU time    110.39 ms
15.002 GB memory available on Device 0, block size = 64
    CPU time for vj and vk on Device 0                                   0.01 sec, wall time      0.01 sec, GPU time      6.30 ms
    CPU time for vj and vk                                               0.01 sec, wall time      0.01 sec, GPU time      7.93 ms
    CPU time for veff                                                    0.01 sec, wall time      0.01 sec, GPU time      8.49 ms
    CPU time for veff                                                    0.12 sec, wall time      0.12 sec, GPU time    120.44 ms
E1 = -714.7363430971294  Ecoul = 314.7569322412503  Exc = -34.60547132765723
    CPU time for cycle=1                                                 0.12 sec, wall time      0.13 sec, GPU time    125.53 ms
cycle= 1 E= -231.777604497916  delta_E= 0.851  |g|= 0.276  |ddm|= 4.29
diis-c [-0.07608723  1.        ]
    CPU time for DIIS                                                    0.00 sec, wall time      0.00 sec, GPU time      1.19 ms
    CPU time for eig                                                     0.00 sec, wall time      0.00 sec, GPU time      4.18 ms
  HOMO = -0.220386710336595  LUMO = 0.0367320675349759
333056 grids on Device 0
0 - 333056 grids are calculated on Device 0.
mem_info: unallocated=12290.94 MB, used=63.75 MB, free=72.96 MB, free_blocks=21
12964.491264 MB memory is available on Device 0, block_size None
    CPU time for eval rho on Device 0                                    0.02 sec, wall time      0.02 sec, GPU time     61.86 ms
    CPU time for eval vxc on Device 0                                    0.04 sec, wall time      0.04 sec, GPU time      2.22 ms
0 - 333056 grids are calculated on Device 0.
mem_info: unallocated=12282.94 MB, used=75.42 MB, free=61.29 MB, free_blocks=21
12943.863808 MB memory is available on Device 0, block_size None
    CPU time for eval integration on 0                                   0.01 sec, wall time      0.01 sec, GPU time     43.32 ms
    CPU time for nr_rks                                                  0.11 sec, wall time      0.11 sec, GPU time    109.15 ms
nelec by numeric integration = 41.99999640442723
    CPU time for vxc                                                     0.11 sec, wall time      0.11 sec, GPU time    109.21 ms
15.002 GB memory available on Device 0, block size = 64
    CPU time for vj and vk on Device 0                                   0.01 sec, wall time      0.01 sec, GPU time      6.28 ms
    CPU time for vj and vk                                               0.01 sec, wall time      0.01 sec, GPU time      7.58 ms
    CPU time for veff                                                    0.01 sec, wall time      0.01 sec, GPU time      8.01 ms
    CPU time for veff                                                    0.12 sec, wall time      0.12 sec, GPU time    117.94 ms
E1 = -710.2530115333424  Ecoul = 309.9526893283629  Exc = -34.28799035946612
    CPU time for cycle=2                                                 0.12 sec, wall time      0.12 sec, GPU time    124.01 ms
cycle= 2 E= -231.781034878825  delta_E= -0.00343  |g|= 0.271  |ddm|= 0.767
diis-c [-0.00350191  0.49573249  0.50426751]
    CPU time for DIIS                                                    0.00 sec, wall time      0.00 sec, GPU time      0.62 ms
    CPU time for eig                                                     0.00 sec, wall time      0.00 sec, GPU time      4.20 ms
  HOMO = -0.265612124476429  LUMO = -0.00441824619487399
333056 grids on Device 0
0 - 333056 grids are calculated on Device 0.
mem_info: unallocated=12290.94 MB, used=63.85 MB, free=72.86 MB, free_blocks=22
12964.385792 MB memory is available on Device 0, block_size None
    CPU time for eval rho on Device 0                                    0.02 sec, wall time      0.02 sec, GPU time     62.78 ms
    CPU time for eval vxc on Device 0                                    0.04 sec, wall time      0.04 sec, GPU time      2.45 ms
0 - 333056 grids are calculated on Device 0.
mem_info: unallocated=12282.94 MB, used=75.52 MB, free=61.19 MB, free_blocks=22
12943.758336 MB memory is available on Device 0, block_size None
    CPU time for eval integration on 0                                   0.01 sec, wall time      0.01 sec, GPU time     44.52 ms
    CPU time for nr_rks                                                  0.11 sec, wall time      0.11 sec, GPU time    111.29 ms
nelec by numeric integration = 41.99999631896093
    CPU time for vxc                                                     0.11 sec, wall time      0.11 sec, GPU time    111.36 ms
15.002 GB memory available on Device 0, block size = 64
    CPU time for vj and vk on Device 0                                   0.01 sec, wall time      0.01 sec, GPU time      6.51 ms
    CPU time for vj and vk                                               0.01 sec, wall time      0.01 sec, GPU time      7.76 ms
    CPU time for veff                                                    0.01 sec, wall time      0.01 sec, GPU time      8.24 ms
    CPU time for veff                                                    0.12 sec, wall time      0.12 sec, GPU time    120.29 ms
E1 = -712.5162519672449  Ecoul = 312.34514252110307  Exc = -34.43747620311669
    CPU time for cycle=3                                                 0.12 sec, wall time      0.13 sec, GPU time    125.82 ms
cycle= 3 E= -231.801307963638  delta_E= -0.0203  |g|= 0.0147  |ddm|= 0.324
diis-c [-1.29813561e-04  1.60885811e-02  4.63946420e-02  9.37516777e-01]
    CPU time for DIIS                                                    0.00 sec, wall time      0.00 sec, GPU time      0.70 ms
    CPU time for eig                                                     0.00 sec, wall time      0.00 sec, GPU time      4.42 ms
  HOMO = -0.265983117767296  LUMO = -0.00515940335772771
333056 grids on Device 0
0 - 333056 grids are calculated on Device 0.
mem_info: unallocated=12290.94 MB, used=63.95 MB, free=72.76 MB, free_blocks=24
12964.28032 MB memory is available on Device 0, block_size None
    CPU time for eval rho on Device 0                                    0.02 sec, wall time      0.02 sec, GPU time     64.03 ms
    CPU time for eval vxc on Device 0                                    0.04 sec, wall time      0.04 sec, GPU time      2.17 ms
0 - 333056 grids are calculated on Device 0.
mem_info: unallocated=12282.94 MB, used=75.62 MB, free=61.09 MB, free_blocks=23
12943.652864 MB memory is available on Device 0, block_size None
    CPU time for eval integration on 0                                   0.01 sec, wall time      0.01 sec, GPU time     45.05 ms
    CPU time for nr_rks                                                  0.11 sec, wall time      0.11 sec, GPU time    112.76 ms
nelec by numeric integration = 41.99999635303432
    CPU time for vxc                                                     0.11 sec, wall time      0.11 sec, GPU time    112.83 ms
15.002 GB memory available on Device 0, block size = 64
    CPU time for vj and vk on Device 0                                   0.01 sec, wall time      0.01 sec, GPU time      6.18 ms
    CPU time for vj and vk                                               0.01 sec, wall time      0.01 sec, GPU time      7.39 ms
    CPU time for veff                                                    0.01 sec, wall time      0.01 sec, GPU time      7.92 ms
    CPU time for veff                                                    0.12 sec, wall time      0.12 sec, GPU time    121.48 ms
E1 = -712.4869128873427  Ecoul = 312.31654598739186  Exc = -34.43826435523893
    CPU time for cycle=4                                                 0.12 sec, wall time      0.13 sec, GPU time    127.31 ms
cycle= 4 E= -231.801353569569  delta_E= -4.56e-05  |g|= 0.00388  |ddm|= 0.0305
diis-c [-5.90275505e-07 -1.21839348e-02 -2.90931878e-03  2.24071071e-01
  7.91022183e-01]
    CPU time for DIIS                                                    0.00 sec, wall time      0.00 sec, GPU time      0.80 ms
    CPU time for eig                                                     0.00 sec, wall time      0.00 sec, GPU time      4.27 ms
  HOMO = -0.265583567084838  LUMO = -0.00468845994133959
333056 grids on Device 0
0 - 333056 grids are calculated on Device 0.
mem_info: unallocated=12290.94 MB, used=64.05 MB, free=72.66 MB, free_blocks=24
12964.174848 MB memory is available on Device 0, block_size None
    CPU time for eval rho on Device 0                                    0.02 sec, wall time      0.02 sec, GPU time     61.88 ms
    CPU time for eval vxc on Device 0                                    0.04 sec, wall time      0.04 sec, GPU time      2.40 ms
0 - 333056 grids are calculated on Device 0.
mem_info: unallocated=12282.94 MB, used=75.72 MB, free=60.99 MB, free_blocks=24
12943.547392 MB memory is available on Device 0, block_size None
    CPU time for eval integration on 0                                   0.01 sec, wall time      0.01 sec, GPU time     43.42 ms
    CPU time for nr_rks                                                  0.11 sec, wall time      0.11 sec, GPU time    109.31 ms
nelec by numeric integration = 41.999996348819
    CPU time for vxc                                                     0.11 sec, wall time      0.11 sec, GPU time    109.39 ms
15.002 GB memory available on Device 0, block size = 64
    CPU time for vj and vk on Device 0                                   0.01 sec, wall time      0.01 sec, GPU time      6.37 ms
    CPU time for vj and vk                                               0.01 sec, wall time      0.01 sec, GPU time      7.65 ms
    CPU time for veff                                                    0.01 sec, wall time      0.01 sec, GPU time      8.21 ms
    CPU time for veff                                                    0.12 sec, wall time      0.12 sec, GPU time    118.34 ms
E1 = -712.4738590190331  Ecoul = 312.3017202811565  Exc = -34.436496146393225
    CPU time for cycle=5                                                 0.12 sec, wall time      0.12 sec, GPU time    124.30 ms
cycle= 5 E= -231.801357198649  delta_E= -3.63e-06  |g|= 0.000794  |ddm|= 0.00569
diis-c [-1.23398175e-07 -6.30056689e-03 -1.52486857e-03  1.10300819e-01
  4.03435713e-01  4.94088903e-01]
    CPU time for DIIS                                                    0.00 sec, wall time      0.00 sec, GPU time      0.99 ms
    CPU time for eig                                                     0.00 sec, wall time      0.00 sec, GPU time      4.24 ms
  HOMO = -0.265584028758207  LUMO = -0.00468767873614119
333056 grids on Device 0
0 - 333056 grids are calculated on Device 0.
mem_info: unallocated=12290.94 MB, used=64.15 MB, free=72.56 MB, free_blocks=24
12964.069376 MB memory is available on Device 0, block_size None
    CPU time for eval rho on Device 0                                    0.02 sec, wall time      0.02 sec, GPU time     61.98 ms
    CPU time for eval vxc on Device 0                                    0.04 sec, wall time      0.04 sec, GPU time      2.26 ms
0 - 333056 grids are calculated on Device 0.
mem_info: unallocated=12282.94 MB, used=75.82 MB, free=60.89 MB, free_blocks=24
12943.44192 MB memory is available on Device 0, block_size None
    CPU time for eval integration on 0                                   0.01 sec, wall time      0.01 sec, GPU time     43.33 ms
    CPU time for nr_rks                                                  0.11 sec, wall time      0.11 sec, GPU time    109.16 ms
nelec by numeric integration = 41.9999963488695
    CPU time for vxc                                                     0.11 sec, wall time      0.11 sec, GPU time    109.24 ms
15.001 GB memory available on Device 0, block size = 64
    CPU time for vj and vk on Device 0                                   0.01 sec, wall time      0.01 sec, GPU time      6.37 ms
    CPU time for vj and vk                                               0.01 sec, wall time      0.01 sec, GPU time      7.66 ms
    CPU time for veff                                                    0.01 sec, wall time      0.01 sec, GPU time      8.20 ms
    CPU time for veff                                                    0.12 sec, wall time      0.12 sec, GPU time    118.18 ms
E1 = -712.4734989928676  Ecoul = 312.3013335589786  Exc = -34.43646960895306
    CPU time for cycle=6                                                 0.12 sec, wall time      0.12 sec, GPU time    124.15 ms
cycle= 6 E= -231.801357357221  delta_E= -1.59e-07  |g|= 0.000275  |ddm|= 0.00112
diis-c [-4.44755310e-09 -1.72080266e-04  4.13089127e-05 -6.87469915e-04
  6.29371205e-03  2.52983234e-01  7.41541295e-01]
    CPU time for DIIS                                                    0.00 sec, wall time      0.00 sec, GPU time      1.03 ms
    CPU time for eig                                                     0.00 sec, wall time      0.00 sec, GPU time      4.22 ms
  HOMO = -0.265572493454309  LUMO = -0.00467843788136656
333056 grids on Device 0
0 - 333056 grids are calculated on Device 0.
mem_info: unallocated=12290.94 MB, used=64.25 MB, free=72.46 MB, free_blocks=27
12963.963904 MB memory is available on Device 0, block_size None
    CPU time for eval rho on Device 0                                    0.02 sec, wall time      0.02 sec, GPU time     61.92 ms
    CPU time for eval vxc on Device 0                                    0.04 sec, wall time      0.04 sec, GPU time      2.20 ms
0 - 333056 grids are calculated on Device 0.
mem_info: unallocated=12282.94 MB, used=75.92 MB, free=60.79 MB, free_blocks=25
12943.336448 MB memory is available on Device 0, block_size None
    CPU time for eval integration on 0                                   0.01 sec, wall time      0.01 sec, GPU time     43.31 ms
    CPU time for nr_rks                                                  0.11 sec, wall time      0.11 sec, GPU time    108.95 ms
nelec by numeric integration = 41.99999634899038
    CPU time for vxc                                                     0.11 sec, wall time      0.11 sec, GPU time    109.03 ms
15.001 GB memory available on Device 0, block size = 64
    CPU time for vj and vk on Device 0                                   0.01 sec, wall time      0.01 sec, GPU time      6.28 ms
    CPU time for vj and vk                                               0.01 sec, wall time      0.01 sec, GPU time      7.53 ms
    CPU time for veff                                                    0.01 sec, wall time      0.01 sec, GPU time      8.07 ms
    CPU time for veff                                                    0.12 sec, wall time      0.12 sec, GPU time    117.84 ms
E1 = -712.4732023468572  Ecoul = 312.3010191710578  Exc = -34.436451887621246
    CPU time for cycle=7                                                 0.12 sec, wall time      0.12 sec, GPU time    123.79 ms
cycle= 7 E= -231.8013573778  delta_E= -2.06e-08  |g|= 8.8e-05  |ddm|= 0.000361
diis-c [-1.89422610e-10  1.13570244e-04  7.92068762e-05 -4.21905460e-03
 -1.02418900e-02  1.32614695e-01  4.39821738e-01  4.41831734e-01]
    CPU time for DIIS                                                    0.00 sec, wall time      0.00 sec, GPU time      1.07 ms
    CPU time for eig                                                     0.00 sec, wall time      0.00 sec, GPU time      4.30 ms
  HOMO = -0.265569679722453  LUMO = -0.00467618746401076
333056 grids on Device 0
0 - 333056 grids are calculated on Device 0.
mem_info: unallocated=12290.94 MB, used=64.35 MB, free=72.36 MB, free_blocks=26
12963.858432 MB memory is available on Device 0, block_size None
    CPU time for eval rho on Device 0                                    0.02 sec, wall time      0.02 sec, GPU time     61.98 ms
    CPU time for eval vxc on Device 0                                    0.04 sec, wall time      0.04 sec, GPU time      2.16 ms
0 - 333056 grids are calculated on Device 0.
mem_info: unallocated=12282.94 MB, used=76.02 MB, free=60.69 MB, free_blocks=26
12943.230976 MB memory is available on Device 0, block_size None
    CPU time for eval integration on 0                                   0.01 sec, wall time      0.01 sec, GPU time     43.31 ms
    CPU time for nr_rks                                                  0.11 sec, wall time      0.11 sec, GPU time    108.99 ms
nelec by numeric integration = 41.99999634900377
    CPU time for vxc                                                     0.11 sec, wall time      0.11 sec, GPU time    109.05 ms
15.001 GB memory available on Device 0, block size = 64
    CPU time for vj and vk on Device 0                                   0.01 sec, wall time      0.01 sec, GPU time      6.16 ms
    CPU time for vj and vk                                               0.01 sec, wall time      0.01 sec, GPU time      7.36 ms
    CPU time for veff                                                    0.01 sec, wall time      0.01 sec, GPU time      7.91 ms
    CPU time for veff                                                    0.12 sec, wall time      0.12 sec, GPU time    117.71 ms
E1 = -712.4731889621123  Ecoul = 312.3010049382045  Exc = -34.43645104155799
    CPU time for cycle=8                                                 0.12 sec, wall time      0.12 sec, GPU time    123.81 ms
cycle= 8 E= -231.801357379845  delta_E= -2.05e-09  |g|= 3.16e-06  |ddm|= 8.53e-05
diis-c [-7.89980696e-13  2.29456115e-06 -2.62468207e-06  7.37699877e-05
 -1.24165537e-04 -8.57991384e-03 -2.44615621e-02  1.06847435e-02
  1.02240746e+00]
    CPU time for DIIS                                                    0.00 sec, wall time      0.00 sec, GPU time      1.16 ms
    CPU time for eig                                                     0.00 sec, wall time      0.00 sec, GPU time      4.19 ms
  HOMO = -0.265569569109939  LUMO = -0.00467608886629785
333056 grids on Device 0
0 - 333056 grids are calculated on Device 0.
mem_info: unallocated=12290.94 MB, used=64.45 MB, free=72.26 MB, free_blocks=24
12963.75296 MB memory is available on Device 0, block_size None
    CPU time for eval rho on Device 0                                    0.02 sec, wall time      0.02 sec, GPU time     61.96 ms
    CPU time for eval vxc on Device 0                                    0.04 sec, wall time      0.04 sec, GPU time      2.21 ms
0 - 333056 grids are calculated on Device 0.
mem_info: unallocated=12282.94 MB, used=76.12 MB, free=60.59 MB, free_blocks=24
12943.125504 MB memory is available on Device 0, block_size None
    CPU time for eval integration on 0                                   0.01 sec, wall time      0.01 sec, GPU time     43.28 ms
    CPU time for nr_rks                                                  0.11 sec, wall time      0.11 sec, GPU time    108.98 ms
nelec by numeric integration = 41.999996349008015
    CPU time for vxc                                                     0.11 sec, wall time      0.11 sec, GPU time    109.05 ms
15.001 GB memory available on Device 0, block size = 64
    CPU time for vj and vk on Device 0                                   0.01 sec, wall time      0.01 sec, GPU time      6.16 ms
    CPU time for vj and vk                                               0.01 sec, wall time      0.01 sec, GPU time      7.44 ms
    CPU time for veff                                                    0.01 sec, wall time      0.01 sec, GPU time      7.96 ms
    CPU time for veff                                                    0.12 sec, wall time      0.12 sec, GPU time    117.73 ms
E1 = -712.4731888883438  Ecoul = 312.3010046963344  Exc = -34.43645087345928
    CPU time for cycle=9                                                 0.12 sec, wall time      0.12 sec, GPU time    123.74 ms
cycle= 9 E= -231.801357379848  delta_E= -2.9e-12  |g|= 9.18e-07  |ddm|= 5e-06
    CPU time for SCF                                                     2.51 sec, wall time      1.71 sec, GPU time   1705.09 ms
converged SCF energy = -231.801357379848


******** <class 'gpu4pyscf.df.grad.rks.Gradients'> for <class 'gpu4pyscf.df.df_jk.DFRKS'> ********
unit = Eh/Bohr
max_memory 4000 MB (current use 1166 MB)
Number of shells for each [l, nctr] group
    [0 1] : 18
    [0 3] : 6
    [0 5] : 6
    [1 1] : 12
    [1 3] : 6
    [2 1] : 6
    CPU time for Initialize q_cond                                       0.14 sec, wall time      0.01 sec, GPU time      5.91 ms
    CPU time for Get AO pairing                                          0.00 sec, wall time      0.00 sec, GPU time      0.49 ms
    CPU time for AO indices                                              0.00 sec, wall time      0.00 sec, GPU time      0.16 ms
    CPU time for Initialize GPU cache                                    0.02 sec, wall time      0.00 sec, GPU time      0.78 ms
    CPU time for gradients of h1e                                        0.69 sec, wall time      0.04 sec, GPU time     37.57 ms
333056 grids on Device 0
0 - 333056 grids are calculated on Device 0.
mem_info: unallocated=12290.94 MB, used=28.67 MB, free=108.04 MB, free_blocks=24
13001.271296 MB memory is available on Device 0, block_size None
    CPU time for gradient of vxc                                         0.39 sec, wall time      0.40 sec, GPU time    401.03 ms
    CPU time for grad vxc                                                0.39 sec, wall time      0.40 sec, GPU time    401.95 ms
    CPU time for vxc total                                               0.39 sec, wall time      0.40 sec, GPU time    402.12 ms
Number of shells for each [l, nprim] group
    [0 5] : 6
    [0 3] : 6
    [0 1] : 18
    [1 3] : 6
    [1 1] : 12
    [2 1] : 6
Number of shells for each [l, nprim] group
    [0 5] : 6
    [0 3] : 6
    [0 1] : 60
    [1 3] : 6
    [1 1] : 54
    [2 2] : 6
    [2 1] : 36
    [3 2] : 6
    [4 1] : 6
dm_factor shape (120, 21)
sp_batches = 1, ksh_batches = 9
12.850 GB free memory. nao_pair=7377 naux=654 batch_size=654 blksize=654
    CPU time for contract dm                                             0.02 sec, wall time      0.02 sec, GPU time     24.65 ms
int2c2e_kernel, nimgs = 1
    CPU time for contract int3c2e_ejk_ip1                                0.04 sec, wall time      0.04 sec, GPU time    139.10 ms
int2c2e_kernel, nimgs = 1
    CPU time for contract int2c2e_ip1                                    0.12 sec, wall time      0.12 sec, GPU time     11.09 ms
    CPU time for gradients of veff                                       0.58 sec, wall time      0.59 sec, GPU time    589.73 ms
Computing Gradients of NR-HF Coulomb repulsion
    CPU time for gradients of 2e part                                    0.58 sec, wall time      0.59 sec, GPU time    589.82 ms
    CPU time for gradients of electronic part                            1.27 sec, wall time      0.63 sec, GPU time    628.16 ms
    CPU time for SCF gradients                                           1.27 sec, wall time      0.63 sec, GPU time    628.38 ms
--------------- DFRKS gradients ---------------
         x                y                z
0 C     0.0113540133    -0.0057687442     0.0086448186
1 H    -0.0059381859     0.0034200367    -0.0044729658
2 C     0.0043972823    -0.0109969406    -0.0052094863
3 H    -0.0033241995     0.0067410080     0.0024856469
4 C     0.0034135052     0.0046388784     0.0097587396
5 H    -0.0022199107    -0.0029895306    -0.0060039186
6 C    -0.0046669299    -0.0067289317    -0.0128087454
7 H     0.0027905059     0.0038551872     0.0077504880
8 C    -0.0082794901     0.0176133968     0.0071477047
9 H     0.0051753389    -0.0103990366    -0.0037347932
10 C    -0.0062981744     0.0025454551    -0.0062879659
11 H     0.0035962119    -0.0019310029     0.0027302597
----------------------------------------------


******** <class 'gpu4pyscf.df.hessian.rks.Hessian'> for <class 'gpu4pyscf.df.df_jk.DFRKS'> ********
Max_memory 4000 MB (current use 1194 MB)
Partial Hessian with density fitting approximation
Memory available 14.002024077810347 GB
Psi4 predefined JKFIT basis set def2-svp-jkfit for HF
Default auxbasis def2-svp-jkfit is applied universally
num shells = 186, num cGTOs = 558
    CPU time for intermediate variables with int2c2e and int2c2e_ip1      0.40 sec, wall time      0.02 sec, GPU time     22.74 ms
Number of shells for each [l, nctr] group
    [0 1] : 18
    [0 3] : 6
    [0 5] : 6
    [1 1] : 12
    [1 3] : 6
    [2 1] : 6
Number of shells for each [l, nctr] group
    [0 1] : 60
    [0 3] : 6
    [0 5] : 6
    [1 1] : 54
    [1 3] : 6
    [2 1] : 36
    [2 2] : 6
    [3 2] : 6
    [4 1] : 6
    CPU time for Initialize q_cond                                       0.03 sec, wall time      0.00 sec, GPU time      3.21 ms
    CPU time for Get AO pairing                                          0.02 sec, wall time      0.00 sec, GPU time      0.42 ms
    CPU time for AO indices                                              0.00 sec, wall time      0.00 sec, GPU time      0.15 ms
    CPU time for Aux AO indices                                          0.00 sec, wall time      0.00 sec, GPU time      0.30 ms
    CPU time for Get AO pairs                                            0.02 sec, wall time      0.00 sec, GPU time      0.64 ms
    CPU time for Initialize GPU cache on Device 0                        0.00 sec, wall time      0.00 sec, GPU time      0.38 ms
    CPU time for int3c2e_vjk on Device 0                                 0.19 sec, wall time      0.12 sec, GPU time    123.99 ms
    CPU time for intermediate variables with int3c2e                     0.61 sec, wall time      0.16 sec, GPU time    164.84 ms
    CPU time for Initialize GPU cache on Device 0                        0.00 sec, wall time      0.00 sec, GPU time      0.67 ms
    CPU time for int3c2e_ipip on Device 0                                1.02 sec, wall time      1.03 sec, GPU time   1032.93 ms
    CPU time for intermediate variables with int3c2e_ipip                1.02 sec, wall time      1.03 sec, GPU time   1033.76 ms
    CPU time for int3c2e_ip2_wjk on Device 0                             0.18 sec, wall time      0.18 sec, GPU time    184.25 ms
    CPU time for intermediate variables with int3c2e_ip2                 0.18 sec, wall time      0.19 sec, GPU time    187.02 ms
    CPU time for int3c2e_ip1_wjk on Device 0                             0.22 sec, wall time      0.22 sec, GPU time    221.66 ms
    CPU time for intermediate variables with int3c2e_ip1                 0.22 sec, wall time      0.22 sec, GPU time    224.97 ms
GPU Memory 14.0 GB available, 3557 aux AOs per block
    CPU time for contract int3c2e_ip1 with int2c_ip1                     0.03 sec, wall time      0.03 sec, GPU time    116.71 ms
    CPU time for contract int3c2e_ip1 with int3c2e_ip1                   0.24 sec, wall time      0.24 sec, GPU time    158.36 ms
    CPU time for intermediate variables with int2c_*                     0.70 sec, wall time      0.05 sec, GPU time     54.83 ms
    CPU time for contract int2c_*                                        0.03 sec, wall time      0.03 sec, GPU time     89.95 ms
Number of shells for each [l, nctr] group
    [0 1] : 18
    [0 3] : 6
    [0 5] : 6
    [1 1] : 12
    [1 3] : 6
    [2 1] : 6
    CPU time for Initialize q_cond                                       0.03 sec, wall time      0.00 sec, GPU time      2.16 ms
    CPU time for Get AO pairing                                          0.00 sec, wall time      0.00 sec, GPU time      0.64 ms
    CPU time for AO indices                                              0.00 sec, wall time      0.00 sec, GPU time      0.16 ms
    CPU time for Initialize GPU cache                                    0.02 sec, wall time      0.00 sec, GPU time      0.82 ms
    CPU time for hess_nuc_elec                                           0.28 sec, wall time      0.16 sec, GPU time    157.34 ms
    CPU time for get_hcore                                               0.66 sec, wall time      0.03 sec, GPU time     30.26 ms
    CPU time for hcore generate                                          1.03 sec, wall time      0.26 sec, GPU time    189.79 ms
    CPU time for hcore contribution                                      0.79 sec, wall time      0.10 sec, GPU time     99.04 ms
    CPU time for RHF partial hessian                                     5.27 sec, wall time      2.34 sec, GPU time   2343.18 ms
    CPU time for computing ej, ek                                        5.27 sec, wall time      2.34 sec, GPU time   2343.65 ms
0 - 333056 grids are calculated on Device 0.
mem_info: unallocated=11568.94 MB, used=25.19 MB, free=188.98 MB, free_blocks=25
12329.069056 MB memory is available on Device 0, block_size None
0 - 333056 grids are calculated on Device 0.
mem_info: unallocated=11490.94 MB, used=94.64 MB, free=189.53 MB, free_blocks=26
12247.854592 MB memory is available on Device 0, block_size None
    CPU time for vxc_deriv2 on Device 0                                  5.27 sec, wall time      5.31 sec, GPU time   5308.52 ms
    CPU time for RKS partial hessian                                    11.05 sec, wall time      8.17 sec, GPU time   8171.95 ms
    CPU time for hess elec                                              11.05 sec, wall time      8.17 sec, GPU time   8172.00 ms
Generate JK for RHF partial hessian
GPU memory 14.0 GB available
Psi4 predefined JKFIT basis set def2-svp-jkfit for HF
Default auxbasis def2-svp-jkfit is applied universally
num shells = 186, num cGTOs = 558
GPU Memory 14.0 GB available, 9632 aux AOs per block
Number of shells for each [l, nctr] group
    [0 1] : 18
    [0 3] : 6
    [0 5] : 6
    [1 1] : 12
    [1 3] : 6
    [2 1] : 6
Number of shells for each [l, nctr] group
    [0 1] : 60
    [0 3] : 6
    [0 5] : 6
    [1 1] : 54
    [1 3] : 6
    [2 1] : 36
    [2 2] : 6
    [3 2] : 6
    [4 1] : 6
    CPU time for Initialize q_cond                                       0.03 sec, wall time      0.00 sec, GPU time      2.68 ms
    CPU time for Get AO pairing                                          0.00 sec, wall time      0.00 sec, GPU time      0.41 ms
    CPU time for AO indices                                              0.00 sec, wall time      0.00 sec, GPU time      0.15 ms
    CPU time for Aux AO indices                                          0.00 sec, wall time      0.00 sec, GPU time      0.29 ms
    CPU time for Get AO pairs                                            0.02 sec, wall time      0.00 sec, GPU time      0.61 ms
    CPU time for Initialize GPU cache on Device 0                        0.02 sec, wall time      0.00 sec, GPU time      0.38 ms
    CPU time for Fock matrix due to int3c2e                              0.63 sec, wall time      0.16 sec, GPU time    160.72 ms
    CPU time for Initialize GPU cache on Device 0                        0.00 sec, wall time      0.00 sec, GPU time      0.81 ms
    CPU time for int3c2e_ip2_vjk on Device 0                             0.16 sec, wall time      0.16 sec, GPU time    157.47 ms
    CPU time for Fock matrix due to int3c2e_ip2                          0.17 sec, wall time      0.17 sec, GPU time    163.76 ms
GPU Memory 14.0 GB available, 10656 AOs per block
    CPU time for Fock matrix due to int2c2e_ip1                          0.20 sec, wall time      0.01 sec, GPU time     37.70 ms
    CPU time for int3c2e_ip1_vjk on Device 0                             0.30 sec, wall time      0.30 sec, GPU time    303.33 ms
    CPU time for Fock matrix due to int3c2e_ip1                          0.33 sec, wall time      0.34 sec, GPU time    308.95 ms
Number of shells for each [l, nctr] group
    [0 1] : 18
    [0 3] : 6
    [0 5] : 6
    [1 1] : 12
    [1 3] : 6
    [2 1] : 6
    CPU time for Initialize q_cond                                       0.03 sec, wall time      0.00 sec, GPU time      2.72 ms
    CPU time for Get AO pairing                                          0.00 sec, wall time      0.00 sec, GPU time      0.62 ms
    CPU time for AO indices                                              0.00 sec, wall time      0.00 sec, GPU time      0.15 ms
    CPU time for Aux AO indices                                          0.00 sec, wall time      0.00 sec, GPU time      0.11 ms
    CPU time for Get AO pairs                                            0.02 sec, wall time      0.00 sec, GPU time      0.91 ms
    CPU time for Initialize GPU cache on Device 0                        0.00 sec, wall time      0.00 sec, GPU time      0.56 ms
0 - 333056 grids are calculated on Device 0.
mem_info: unallocated=12230.94 MB, used=88.02 MB, free=10.04 MB, free_blocks=14
12835.591168 MB memory is available on Device 0, block_size None
    CPU time for vxc_deriv1 on Device 0                                  1.95 sec, wall time      1.96 sec, GPU time   1964.58 ms
    CPU time for making H1                                               3.80 sec, wall time      2.71 sec, GPU time   2709.77 ms
GPU memory 14.0 GB available
4816 atoms in each block CPHF equation
Solving CPHF equation for atoms [0:12]
Secondary grids defined for CPHF in Hessian
atom C rad-grids = 50, ang-grids = [  6   6   6   6   6   6   6   6   6   6   6   6   6   6   6  38  38  38
  38  38  38  86  86  86  86 194 194 194 194 194 194 194 194 194 194 194
 194 194  86  86  86  86  86  86  86  86  86  86  86  86]
atom H rad-grids = 50, ang-grids = [  6   6   6   6   6   6   6   6   6   6   6   6   6   6   6   6   6  38
  38  38  38  38  86  86  86  86  86 194 194 194 194 194 194 194 194 194
 194 194 194 194 194 194  86  86  86  86  86  86  86  86]
    CPU time for generating atomic grids                                 0.00 sec, wall time      0.00 sec, GPU time      2.42 ms
Padding 240 grids
    CPU time for sorting grids                                           0.00 sec, wall time      0.00 sec, GPU time      0.83 ms
tot grids = 51456
0 - 51456 grids are calculated on Device 0.
mem_info: unallocated=12310.94 MB, used=25.83 MB, free=4.46 MB, free_blocks=14
12913.632256 MB memory is available on Device 0, block_size None
    CPU time for eval rho in fxc                                         0.03 sec, wall time      0.03 sec, GPU time     27.52 ms
    CPU time for eval fxc                                                0.00 sec, wall time      0.00 sec, GPU time      1.59 ms
51456 grids on Device 0
0 - 51456 grids are calculated on Device 0.
mem_info: unallocated=12276.94 MB, used=47.23 MB, free=14.47 MB, free_blocks=22
12888.475136 MB memory is available on Device 0, block_size None
    CPU time for vxc on Device 0                                         0.37 sec, wall time      0.38 sec, GPU time    449.59 ms
    CPU time for nr_rks_fxc                                              0.45 sec, wall time      0.45 sec, GPU time    451.42 ms
Build CDERI ...
    CPU time for 2c2e                                                    0.09 sec, wall time      0.01 sec, GPU time      5.74 ms
Number of shells for each [l, nctr] group
    [0 1] : 18
    [0 3] : 6
    [0 5] : 6
    [1 1] : 12
    [1 3] : 6
    [2 1] : 6
Number of shells for each [l, nctr] group
    [0 1] : 60
    [0 3] : 6
    [0 5] : 6
    [1 1] : 54
    [1 3] : 6
    [2 1] : 36
    [2 2] : 6
    [3 2] : 6
    [4 1] : 6
    CPU time for Initialize q_cond                                       0.07 sec, wall time      0.00 sec, GPU time      3.05 ms
    CPU time for Get AO pairing                                          0.00 sec, wall time      0.00 sec, GPU time      0.34 ms
    CPU time for AO indices                                              0.00 sec, wall time      0.00 sec, GPU time      0.18 ms
    CPU time for Aux AO indices                                          0.00 sec, wall time      0.00 sec, GPU time      0.27 ms
    CPU time for Get AO pairs                                            0.02 sec, wall time      0.00 sec, GPU time      0.47 ms
    CPU time for prepare intopt                                          0.16 sec, wall time      0.01 sec, GPU time      7.18 ms
size of aux basis 558
Saving CDERI on GPU
CDERI size 0.027 GB on Device 0
    CPU time for Initialize GPU cache on Device 0                        0.01 sec, wall time      0.00 sec, GPU time      0.34 ms
    CPU time for solve 5 / 21 on Device 0                                0.02 sec, wall time      0.00 sec, GPU time      3.11 ms
    CPU time for transfer data for 5 / 21 on Device 0                    0.00 sec, wall time      0.00 sec, GPU time      0.06 ms
    CPU time for solve 2 / 21 on Device 0                                0.00 sec, wall time      0.00 sec, GPU time      2.11 ms
    CPU time for transfer data for 2 / 21 on Device 0                    0.00 sec, wall time      0.00 sec, GPU time      0.05 ms
    CPU time for solve 4 / 21 on Device 0                                0.00 sec, wall time      0.00 sec, GPU time      2.70 ms
    CPU time for transfer data for 4 / 21 on Device 0                    0.00 sec, wall time      0.00 sec, GPU time      0.06 ms
    CPU time for solve 1 / 21 on Device 0                                0.00 sec, wall time      0.00 sec, GPU time      1.85 ms
    CPU time for transfer data for 1 / 21 on Device 0                    0.00 sec, wall time      0.00 sec, GPU time      0.05 ms
    CPU time for solve 3 / 21 on Device 0                                0.00 sec, wall time      0.00 sec, GPU time      2.02 ms
    CPU time for transfer data for 3 / 21 on Device 0                    0.00 sec, wall time      0.00 sec, GPU time      0.05 ms
    CPU time for solve 11 / 21 on Device 0                               0.00 sec, wall time      0.00 sec, GPU time      2.41 ms
    CPU time for transfer data for 11 / 21 on Device 0                   0.00 sec, wall time      0.00 sec, GPU time      0.05 ms
    CPU time for solve 12 / 21 on Device 0                               0.00 sec, wall time      0.00 sec, GPU time      3.05 ms
    CPU time for transfer data for 12 / 21 on Device 0                   0.00 sec, wall time      0.00 sec, GPU time      0.05 ms
    CPU time for solve 0 / 21 on Device 0                                0.00 sec, wall time      0.00 sec, GPU time      1.71 ms
    CPU time for transfer data for 0 / 21 on Device 0                    0.00 sec, wall time      0.00 sec, GPU time      0.05 ms
    CPU time for solve 14 / 21 on Device 0                               0.00 sec, wall time      0.00 sec, GPU time      2.92 ms
    CPU time for transfer data for 14 / 21 on Device 0                   0.00 sec, wall time      0.00 sec, GPU time      0.05 ms
    CPU time for solve 16 / 21 on Device 0                               0.00 sec, wall time      0.00 sec, GPU time      2.09 ms
    CPU time for transfer data for 16 / 21 on Device 0                   0.00 sec, wall time      0.00 sec, GPU time      0.06 ms
    CPU time for solve 17 / 21 on Device 0                               0.00 sec, wall time      0.00 sec, GPU time      2.41 ms
    CPU time for transfer data for 17 / 21 on Device 0                   0.00 sec, wall time      0.00 sec, GPU time      0.05 ms
    CPU time for solve 8 / 21 on Device 0                                0.00 sec, wall time      0.00 sec, GPU time      2.21 ms
    CPU time for transfer data for 8 / 21 on Device 0                    0.00 sec, wall time      0.00 sec, GPU time      0.05 ms
    CPU time for solve 7 / 21 on Device 0                                0.00 sec, wall time      0.00 sec, GPU time      1.91 ms
    CPU time for transfer data for 7 / 21 on Device 0                    0.00 sec, wall time      0.00 sec, GPU time      0.05 ms
    CPU time for solve 10 / 21 on Device 0                               0.00 sec, wall time      0.00 sec, GPU time      2.58 ms
    CPU time for transfer data for 10 / 21 on Device 0                   0.00 sec, wall time      0.00 sec, GPU time      0.06 ms
    CPU time for solve 20 / 21 on Device 0                               0.00 sec, wall time      0.00 sec, GPU time      2.37 ms
    CPU time for transfer data for 20 / 21 on Device 0                   0.00 sec, wall time      0.00 sec, GPU time      0.05 ms
    CPU time for solve 15 / 21 on Device 0                               0.00 sec, wall time      0.00 sec, GPU time      2.12 ms
    CPU time for transfer data for 15 / 21 on Device 0                   0.00 sec, wall time      0.00 sec, GPU time      0.06 ms
    CPU time for solve 19 / 21 on Device 0                               0.00 sec, wall time      0.00 sec, GPU time      2.57 ms
    CPU time for transfer data for 19 / 21 on Device 0                   0.00 sec, wall time      0.00 sec, GPU time      0.05 ms
    CPU time for solve 6 / 21 on Device 0                                0.00 sec, wall time      0.00 sec, GPU time      2.79 ms
    CPU time for transfer data for 6 / 21 on Device 0                    0.00 sec, wall time      0.00 sec, GPU time      0.06 ms
    CPU time for solve 13 / 21 on Device 0                               0.00 sec, wall time      0.00 sec, GPU time      3.16 ms
    CPU time for transfer data for 13 / 21 on Device 0                   0.00 sec, wall time      0.00 sec, GPU time      0.06 ms
    CPU time for solve 9 / 21 on Device 0                                0.00 sec, wall time      0.00 sec, GPU time      2.75 ms
    CPU time for transfer data for 9 / 21 on Device 0                    0.00 sec, wall time      0.00 sec, GPU time      0.06 ms
    CPU time for solve 18 / 21 on Device 0                               0.00 sec, wall time      0.00 sec, GPU time      2.93 ms
    CPU time for transfer data for 18 / 21 on Device 0                   0.00 sec, wall time      0.00 sec, GPU time      0.07 ms
    CPU time for cholesky_eri                                            0.30 sec, wall time      0.06 sec, GPU time     63.79 ms
    CPU time for init jk                                                 0.39 sec, wall time      0.07 sec, GPU time     69.64 ms
14.974 GB memory available on Device 0, block size = 64
    CPU time for vj and vk on Device 0                                   0.13 sec, wall time      0.13 sec, GPU time    139.44 ms
    CPU time for vj and vk                                               0.14 sec, wall time      0.14 sec, GPU time    140.78 ms
krylov cycle 0, r = 1.744e-01, 36 equations
Secondary grids defined for CPHF in Hessian
0 - 51456 grids are calculated on Device 0.
mem_info: unallocated=12180.94 MB, used=56.10 MB, free=97.02 MB, free_blocks=34
12874.375168 MB memory is available on Device 0, block_size None
    CPU time for eval rho in fxc                                         0.01 sec, wall time      0.01 sec, GPU time     13.75 ms
    CPU time for eval fxc                                                0.00 sec, wall time      0.00 sec, GPU time      1.52 ms
51456 grids on Device 0
0 - 51456 grids are calculated on Device 0.
mem_info: unallocated=12180.94 MB, used=75.55 MB, free=77.57 MB, free_blocks=32
12853.98016 MB memory is available on Device 0, block_size None
    CPU time for vxc on Device 0                                         0.27 sec, wall time      0.27 sec, GPU time    347.16 ms
    CPU time for nr_rks_fxc                                              0.34 sec, wall time      0.35 sec, GPU time    348.76 ms
14.976 GB memory available on Device 0, block size = 64
    CPU time for vj and vk on Device 0                                   0.10 sec, wall time      0.10 sec, GPU time    102.61 ms
    CPU time for vj and vk                                               0.10 sec, wall time      0.10 sec, GPU time    103.73 ms
krylov cycle 1, r = 2.883e-02, 27 equations
Secondary grids defined for CPHF in Hessian
0 - 51456 grids are calculated on Device 0.
mem_info: unallocated=12180.94 MB, used=54.09 MB, free=99.02 MB, free_blocks=35
12876.473856 MB memory is available on Device 0, block_size None
    CPU time for eval rho in fxc                                         0.01 sec, wall time      0.01 sec, GPU time     13.78 ms
    CPU time for eval fxc                                                0.00 sec, wall time      0.00 sec, GPU time      1.27 ms
51456 grids on Device 0
0 - 51456 grids are calculated on Device 0.
mem_info: unallocated=12180.94 MB, used=68.78 MB, free=84.34 MB, free_blocks=34
12861.07392 MB memory is available on Device 0, block_size None
    CPU time for vxc on Device 0                                         0.02 sec, wall time      0.02 sec, GPU time     70.04 ms
    CPU time for nr_rks_fxc                                              0.07 sec, wall time      0.07 sec, GPU time     71.49 ms
14.984 GB memory available on Device 0, block size = 64
    CPU time for vj and vk on Device 0                                   0.02 sec, wall time      0.02 sec, GPU time     25.71 ms
    CPU time for vj and vk                                               0.03 sec, wall time      0.03 sec, GPU time     26.71 ms
krylov cycle 2, r = 3.967e-03, 5 equations
krylov space size 68
Secondary grids defined for CPHF in Hessian
0 - 51456 grids are calculated on Device 0.
mem_info: unallocated=12180.94 MB, used=55.97 MB, free=97.15 MB, free_blocks=35
12874.504704 MB memory is available on Device 0, block_size None
    CPU time for eval rho in fxc                                         0.01 sec, wall time      0.01 sec, GPU time     13.47 ms
    CPU time for eval fxc                                                0.00 sec, wall time      0.00 sec, GPU time      1.24 ms
51456 grids on Device 0
0 - 51456 grids are calculated on Device 0.
mem_info: unallocated=12180.94 MB, used=77.37 MB, free=75.75 MB, free_blocks=33
12852.06528 MB memory is available on Device 0, block_size None
    CPU time for vxc on Device 0                                         0.38 sec, wall time      0.39 sec, GPU time    461.49 ms
    CPU time for nr_rks_fxc                                              0.46 sec, wall time      0.46 sec, GPU time    463.12 ms
14.974 GB memory available on Device 0, block size = 64
    CPU time for vj and vk on Device 0                                   0.13 sec, wall time      0.13 sec, GPU time    137.84 ms
    CPU time for vj and vk                                               0.14 sec, wall time      0.14 sec, GPU time    139.04 ms
    CPU time for CPHF solver                                             2.45 sec, wall time      1.97 sec, GPU time   1968.47 ms
    CPU time for solving MO1                                             2.45 sec, wall time      1.97 sec, GPU time   1968.84 ms
    CPU time for RHF hessian                                            17.45 sec, wall time     12.86 sec, GPU time  12864.06 ms
    CPU time for SCF hessian     17.45 sec, wall time     12.86 sec
Mode                                 0                   1                   2
Irrep
Freq [cm^-1]                      411.2417            415.3350            609.3592
Reduced mass [au]                   2.5620              2.5947              5.7190
Force const [Dyne/A]                0.2553              0.2637              1.2512
Char temp [K]                     591.6852            597.5745            876.7322
Normal mode                   x     y     z       x     y     z       x     y     z
       0   C                 0.01  0.01 -0.01    0.09  0.07 -0.07   -0.09  0.07 -0.05
       1   H                 0.03  0.02 -0.02    0.22  0.17 -0.17   -0.07  0.02 -0.11
       2   C                 0.07  0.06 -0.05   -0.06 -0.04  0.04   -0.04 -0.00 -0.05
       3   H                 0.18  0.14 -0.13   -0.14 -0.11  0.11    0.07  0.01  0.07
       4   C                -0.09 -0.07  0.06   -0.04 -0.03  0.03    0.02  0.08  0.10
       5   H                -0.21 -0.16  0.15   -0.09 -0.07  0.07    0.09  0.03  0.10
       6   C                -0.09 -0.07  0.06   -0.03 -0.03  0.03   -0.02 -0.08 -0.10
       7   H                -0.21 -0.16  0.16   -0.09 -0.07  0.07   -0.06 -0.00 -0.12
       8   C                 0.07  0.06 -0.05   -0.06 -0.04  0.04    0.04 -0.00  0.05
       9   H                 0.19  0.14 -0.14   -0.15 -0.11  0.11   -0.05  0.01 -0.10
      10   C                 0.01  0.01 -0.01    0.09  0.07 -0.07    0.09 -0.08  0.05
      11   H                 0.03  0.02 -0.02    0.21  0.16 -0.16    0.10 -0.01  0.09
Mode                                 3                   4                   5
Irrep
Freq [cm^-1]                      611.6525            612.2486            736.5390
Reduced mass [au]                   2.9505              1.3312              2.9024
Force const [Dyne/A]                0.6504              0.2940              0.9277
Char temp [K]                     880.0318            880.8895           1059.7156
Normal mode                   x     y     z       x     y     z       x     y     z
       0   C                -0.04  0.00 -0.07   -0.04 -0.02 -0.02   -0.07 -0.05  0.05
       1   H                -0.18 -0.01  0.11    0.22  0.23 -0.17   -0.13 -0.10  0.10
       2   C                 0.07 -0.10 -0.05    0.01 -0.08 -0.00    0.07  0.05 -0.05
       3   H                -0.06 -0.20  0.05    0.25  0.11 -0.19    0.16  0.12 -0.12
       4   C                -0.04  0.02 -0.07   -0.05 -0.02 -0.02    0.07  0.05 -0.05
       5   H                -0.09 -0.18  0.05    0.24  0.13 -0.20    0.16  0.12 -0.12
       6   C                 0.06 -0.00  0.05    0.01 -0.01  0.05   -0.07 -0.05  0.05
       7   H                -0.16 -0.01  0.14    0.22  0.23 -0.15   -0.14 -0.11  0.11
       8   C                -0.04  0.12  0.03   -0.05  0.04  0.04   -0.07 -0.05  0.05
       9   H                -0.19  0.01  0.14    0.23  0.25 -0.16   -0.15 -0.12  0.11
      10   C                 0.05  0.01  0.06    0.00 -0.00  0.05    0.07  0.05 -0.05
      11   H                -0.06 -0.17  0.07    0.25  0.12 -0.18    0.15  0.11 -0.11
Mode                                 6                   7                   8
Irrep
Freq [cm^-1]                      808.4094            822.1316            958.6582
Reduced mass [au]                   1.2489              1.2495              1.4589
Force const [Dyne/A]                0.4809              0.4976              0.7899
Char temp [K]                    1163.1212           1182.8644           1379.2958
Normal mode                   x     y     z       x     y     z       x     y     z
       0   C                 0.02  0.01 -0.01    0.05  0.04 -0.04   -0.01 -0.01  0.01
       1   H                -0.11 -0.09  0.09   -0.35 -0.27  0.26    0.07  0.05 -0.05
       2   C                 0.05  0.04 -0.04    0.01  0.01 -0.01    0.07  0.05 -0.05
       3   H                -0.33 -0.25  0.24   -0.07 -0.05  0.05   -0.32 -0.25  0.24
       4   C                -0.03 -0.02  0.02    0.04  0.03 -0.03   -0.05 -0.04  0.04
       5   H                 0.21  0.17 -0.16   -0.24 -0.19  0.18    0.25  0.20 -0.19
       6   C                 0.04  0.03 -0.03   -0.04 -0.03  0.03   -0.04 -0.03  0.03
       7   H                -0.25 -0.19  0.19    0.28  0.21 -0.21    0.22  0.16 -0.16
       8   C                -0.06 -0.05  0.04   -0.02 -0.01  0.01    0.06  0.05 -0.04
       9   H                 0.36  0.28 -0.27    0.09  0.07 -0.07   -0.28 -0.21  0.21
      10   C                -0.01 -0.01  0.01   -0.04 -0.03  0.03   -0.02 -0.01  0.01
      11   H                 0.08  0.06 -0.06    0.31  0.24 -0.23    0.10  0.07 -0.07
Mode                                 9                  10                  11
Irrep
Freq [cm^-1]                      968.7012            997.3337           1011.1078
Reduced mass [au]                   1.4429              1.3657              6.5112
Force const [Dyne/A]                0.7977              0.8004              3.9220
Char temp [K]                    1393.7454           1434.9412           1454.7590
Normal mode                   x     y     z       x     y     z       x     y     z
       0   C                -0.06 -0.05  0.05    0.04  0.03 -0.03    0.08 -0.05  0.06
       1   H                 0.31  0.24 -0.23   -0.22 -0.17  0.16    0.08 -0.04  0.06
       2   C                 0.02  0.02 -0.02   -0.04 -0.03  0.03   -0.05  0.10  0.04
       3   H                -0.11 -0.09  0.08    0.23  0.18 -0.17   -0.04  0.10  0.04
       4   C                 0.05  0.04 -0.04   -0.04 -0.03  0.03   -0.03 -0.05 -0.10
       5   H                -0.25 -0.19  0.19    0.22  0.17 -0.16   -0.03 -0.05 -0.10
       6   C                 0.04  0.03 -0.03    0.05  0.03 -0.04   -0.04 -0.05 -0.10
       7   H                -0.18 -0.14  0.14   -0.24 -0.19  0.18   -0.03 -0.05 -0.10
       8   C                 0.01  0.01 -0.01    0.04  0.03 -0.03   -0.05  0.10  0.04
       9   H                -0.06 -0.04  0.04   -0.21 -0.16  0.16   -0.04  0.10  0.04
      10   C                -0.06 -0.05  0.05   -0.05 -0.04  0.04    0.08 -0.05  0.06
      11   H                 0.32  0.25 -0.24    0.28  0.21 -0.21    0.08 -0.05  0.07
Mode                                12                  13                  14
Irrep
Freq [cm^-1]                     1019.1975           1040.9804           1045.9228
Reduced mass [au]                   5.9822              1.5324              1.5414
Force const [Dyne/A]                3.6612              0.9784              0.9935
Char temp [K]                    1466.3982           1497.7390           1504.8500
Normal mode                   x     y     z       x     y     z       x     y     z
       0   C                 0.08 -0.05  0.06   -0.06  0.04 -0.04    0.01  0.04  0.05
       1   H                 0.09 -0.06  0.06   -0.07  0.08 -0.01   -0.02  0.33  0.31
       2   C                 0.05 -0.09 -0.04    0.02  0.02  0.05    0.05 -0.07 -0.01
       3   H                 0.05 -0.10 -0.05    0.22  0.03  0.33    0.14 -0.07  0.11
       4   C                 0.03  0.05  0.10    0.01 -0.05 -0.04   -0.04 -0.00 -0.06
       5   H                 0.04  0.05  0.11    0.20 -0.26 -0.00   -0.21  0.18 -0.09
       6   C                -0.03 -0.05 -0.09    0.01 -0.06 -0.04   -0.05 -0.00 -0.06
       7   H                -0.03 -0.05 -0.10    0.22 -0.29 -0.00   -0.22  0.19 -0.10
       8   C                -0.05  0.10  0.03    0.02  0.03  0.05    0.05 -0.07 -0.01
       9   H                -0.06  0.11  0.03    0.25  0.03  0.37    0.15 -0.07  0.13
      10   C                -0.08  0.05 -0.06   -0.06  0.04 -0.04    0.00  0.04  0.04
      11   H                -0.09  0.04 -0.07   -0.07  0.07 -0.02   -0.02  0.29  0.27
Mode                                15                  16                  17
Irrep
Freq [cm^-1]                     1128.7729           1156.9894           1163.2422
Reduced mass [au]                   1.0397              1.1105              1.1116
Force const [Dyne/A]                0.7805              0.8759              0.8862
Char temp [K]                    1624.0529           1664.6501           1673.6465
Normal mode                   x     y     z       x     y     z       x     y     z
       0   C                -0.00  0.02  0.02   -0.01  0.02  0.01    0.00 -0.03 -0.03
       1   H                -0.03  0.33  0.30   -0.02  0.15  0.14    0.03 -0.34 -0.31
       2   C                -0.01 -0.00 -0.01   -0.03 -0.00 -0.04    0.01 -0.01  0.00
       3   H                -0.20 -0.00 -0.28   -0.35 -0.00 -0.47    0.05 -0.01  0.05
       4   C                 0.02 -0.02 -0.00   -0.02  0.03  0.01   -0.03  0.03 -0.01
       5   H                 0.28 -0.32  0.05   -0.21  0.24 -0.03   -0.28  0.30 -0.06
       6   C                 0.01 -0.01 -0.00    0.02 -0.02  0.00    0.03 -0.03  0.01
       7   H                 0.24 -0.27  0.05    0.23 -0.26  0.05    0.29 -0.32  0.06
       8   C                -0.01 -0.00 -0.02    0.03  0.00  0.04   -0.01  0.00 -0.00
       9   H                -0.25 -0.00 -0.34    0.30  0.00  0.41   -0.07  0.00 -0.08
      10   C                -0.00  0.02  0.01    0.01 -0.02 -0.01   -0.00  0.04  0.04
      11   H                -0.03  0.29  0.25    0.02 -0.14 -0.11   -0.03  0.40  0.36
Mode                                18                  19                  20
Irrep
Freq [cm^-1]                     1332.5062           1357.7688           1488.7645
Reduced mass [au]                   1.2688              7.9190              2.3066
Force const [Dyne/A]                1.3273              8.6015              3.0122
Char temp [K]                    1917.1797           1953.5269           2142.0006
Normal mode                   x     y     z       x     y     z       x     y     z
       0   C                 0.00 -0.05 -0.05   -0.01  0.08  0.07   -0.05  0.04 -0.03
       1   H                -0.03  0.27  0.24    0.00 -0.02 -0.02   -0.06  0.01 -0.07
       2   C                -0.02  0.00 -0.03   -0.07 -0.00 -0.10    0.04  0.03  0.08
       3   H                 0.21  0.00  0.28    0.08  0.00  0.10   -0.21  0.03 -0.25
       4   C                 0.02 -0.03  0.00    0.08 -0.09  0.02    0.05 -0.08 -0.03
       5   H                -0.24  0.27 -0.05   -0.08  0.08 -0.01   -0.21  0.19 -0.08
       6   C                -0.04  0.05 -0.01    0.07 -0.08  0.02    0.05 -0.09 -0.02
       7   H                 0.23 -0.26  0.05   -0.01  0.01 -0.00   -0.20  0.19 -0.08
       8   C                 0.04  0.00  0.06   -0.07 -0.00 -0.09    0.05  0.03  0.09
       9   H                -0.21 -0.00 -0.28    0.02  0.00  0.03   -0.20  0.03 -0.23
      10   C                -0.00  0.03  0.02   -0.01  0.09  0.08   -0.05  0.04 -0.03
      11   H                 0.02 -0.28 -0.25    0.01 -0.09 -0.08   -0.06  0.01 -0.07
Mode                                21                  22                  23
Irrep
Freq [cm^-1]                     1493.5456           1647.7419           1654.3387
Reduced mass [au]                   2.2860              6.2390              6.2802
Force const [Dyne/A]                3.0044              9.9804             10.1269
Char temp [K]                    2148.8796           2370.7337           2380.2250
Normal mode                   x     y     z       x     y     z       x     y     z
       0   C                 0.00 -0.08 -0.08    0.02  0.06  0.10    0.04 -0.09 -0.03
       1   H                -0.03  0.26  0.23    0.04 -0.10 -0.05    0.04  0.05  0.09
       2   C                -0.05  0.06 -0.01   -0.07 -0.02 -0.12   -0.06  0.05 -0.02
       3   H                 0.05  0.07  0.14    0.10 -0.02  0.11   -0.00  0.06  0.06
       4   C                 0.06 -0.02  0.06   -0.04 -0.01 -0.06   -0.09  0.11 -0.01
       5   H                -0.11  0.18  0.03   -0.00 -0.05 -0.06    0.10 -0.10  0.03
       6   C                 0.06 -0.02  0.06    0.04  0.01  0.06    0.09 -0.11  0.01
       7   H                -0.11  0.18  0.03    0.01  0.05  0.06   -0.10  0.10 -0.03
       8   C                -0.05  0.05 -0.02    0.07  0.02  0.11    0.05 -0.05  0.02
       9   H                 0.05  0.07  0.13   -0.09  0.02 -0.09    0.00 -0.06 -0.06
      10   C                 0.00 -0.07 -0.07   -0.02 -0.07 -0.10   -0.04  0.09  0.04
      11   H                -0.03  0.26  0.23   -0.04  0.11  0.06   -0.03 -0.05 -0.10
Mode                                24                  25                  26
Irrep
Freq [cm^-1]                     3277.3892           3299.7589           3310.1988
Reduced mass [au]                   1.0907              1.0893              1.0897
Force const [Dyne/A]                6.9029              6.9879              7.0353
Char temp [K]                    4715.4334           4747.6184           4762.6391
Normal mode                   x     y     z       x     y     z       x     y     z
       0   C                -0.00  0.00 -0.00   -0.02  0.01 -0.02    0.02 -0.01  0.01
       1   H                 0.03 -0.01  0.02    0.24 -0.13  0.18   -0.22  0.13 -0.16
       2   C                 0.00 -0.00 -0.00    0.01 -0.01 -0.00   -0.03  0.06  0.02
       3   H                -0.01  0.02  0.01   -0.07  0.14  0.05    0.35 -0.70 -0.25
       4   C                 0.00  0.00  0.00    0.02  0.03  0.06    0.01  0.01  0.02
       5   H                -0.02 -0.02 -0.05   -0.27 -0.38 -0.74   -0.08 -0.12 -0.23
       6   C                 0.01  0.00  0.01    0.00  0.00  0.00   -0.00 -0.01 -0.02
       7   H                -0.05 -0.07 -0.14   -0.01 -0.01 -0.02    0.07  0.11  0.21
       8   C                 0.00 -0.00  0.00    0.00 -0.00 -0.00    0.00 -0.00 -0.00
       9   H                -0.04  0.07  0.02   -0.03  0.07  0.03   -0.02  0.03  0.01
      10   C                -0.06  0.03 -0.04    0.01 -0.00  0.00   -0.00  0.00 -0.00
      11   H                 0.68 -0.39  0.51   -0.06  0.03 -0.04    0.04 -0.02  0.03
Mode                                27                  28                  29
Irrep
Freq [cm^-1]                     3326.4914           3339.6481           3380.0057
Reduced mass [au]                   1.0958              1.0972              1.0939
Force const [Dyne/A]                7.1439              7.2103              7.3629
Char temp [K]                    4786.0805           4805.0101           4863.0757
Normal mode                   x     y     z       x     y     z       x     y     z
       0   C                 0.05 -0.03  0.04   -0.02  0.01 -0.01    0.00  0.00  0.00
       1   H                -0.59  0.34 -0.44    0.17 -0.10  0.13   -0.01  0.01 -0.01
       2   C                 0.01 -0.02 -0.01   -0.02  0.03  0.01    0.00 -0.00 -0.00
       3   H                -0.11  0.23  0.09    0.15 -0.31 -0.11   -0.01  0.02  0.01
       4   C                 0.00  0.01  0.02   -0.00 -0.00 -0.00   -0.00 -0.00 -0.01
       5   H                -0.07 -0.10 -0.20    0.01  0.02  0.04    0.03  0.04  0.08
       6   C                 0.01  0.01  0.03    0.02  0.03  0.06   -0.00  0.00 -0.00
       7   H                -0.11 -0.15 -0.30   -0.26 -0.36 -0.71    0.01  0.01  0.02
       8   C                -0.00 -0.00 -0.00    0.00 -0.00 -0.00    0.04 -0.07 -0.03
       9   H                -0.00  0.01  0.00   -0.00  0.01  0.00   -0.40  0.80  0.29
      10   C                 0.00 -0.00  0.00    0.01 -0.01  0.01    0.01 -0.00  0.01
      11   H                -0.04  0.02 -0.03   -0.10  0.06 -0.07   -0.05  0.03 -0.04
temperature 298.1500 [K]
pressure 101325.00 [Pa]
Rotational constants [GHz] 5.66177 5.64949 2.82782
Symmetry number 1
Zero-point energy (ZPE) 0.10121 [Eh]   265726.375 [J/mol]
                           tot       elec      trans        rot        vib
Entropy [J/mol/K]       290.025      0.000    163.100    107.435     19.491
Cv [J/mol/K]             74.075      0.000     12.472     12.472     49.131
Cp [J/mol/K]             82.389      0.000     20.786     12.472     49.131
Internal energy [J/mol]                      3718.434   3718.434 270062.687
Internal energy [Eh]   -231.69566  -231.80136
Enthalpy [J/mol]                             6197.391   3718.434 270062.687
Enthalpy [Eh]          -231.69472
Gibbs free energy [J/mol]                  -42430.742 -28313.209 264251.439
Gibbs free energy [Eh] -231.72765
