#INFO: **** input file is /home/ericb/mmml/.venv/bin/mmml ****
#!/home/ericb/mmml/.venv/bin/python3
# -*- coding: utf-8 -*-
import sys
from mmml.cli.__main__ import main
if __name__ == "__main__":
    if sys.argv[0].endswith("-script.pyw"):
        sys.argv[0] = sys.argv[0][:-11]
    elif sys.argv[0].endswith(".exe"):
        sys.argv[0] = sys.argv[0][:-4]
    sys.exit(main())
#INFO: ******************** input file end ********************


System: uname_result(system='Linux', node='nobara-pc', release='6.19.8-200.nobara.fc43.x86_64', version='#1 SMP PREEMPT_DYNAMIC Fri Mar 13 19:08:20 UTC 2026', machine='x86_64')  Threads 24
Python 3.13.11 (main, Jan 28 2026, 00:01:45) [Clang 21.1.4 ]
numpy 2.4.3  scipy 1.17.1  h5py 3.16.0
Date: Fri Mar 20 14:41:49 2026
PySCF version 2.12.1
PySCF path  /home/ericb/mmml/.venv/lib/python3.13/site-packages/pyscf/__init__.py
CUDA Environment
    CuPy 14.0.1
    CUDA Path /home/ericb/mmml/.venv/lib/python3.13/site-packages/nvidia/cu13
    CUDA Build Version 13000
    CUDA Driver Version 13000
    CUDA Runtime Version 13000
CUDA toolkit
    cuSolver (12, 1, 0)
    cuBLAS 130300
    cuTENSOR None
Device info
    Device name b'NVIDIA GeForce RTX 4060 Ti'
    Device global memory 15.57 GB
    CuPy memory fraction 0.9
    Num. Devices 1
GPU4PySCF 1.6.0
GPU4PySCF path  /home/ericb/mmml/.venv/lib/python3.13/site-packages/gpu4pyscf

[CONFIG] conf_file None
[INPUT] verbose = 6
[INPUT] max_memory = 4000 
[INPUT] num. atoms = 6
[INPUT] num. electrons = 18
[INPUT] charge = 0
[INPUT] spin (= nelec alpha-beta = 2S) = 0
[INPUT] symmetry False subgroup None
[INPUT] Mole.unit = angstrom
[INPUT] Symbol           X                Y                Z      unit          X                Y                Z       unit  Magmom
[INPUT]  1 C      0.262224170000  -0.025341540000   0.375227330000 AA    0.495531864541  -0.047888570175   0.709076888152 Bohr   0.0
[INPUT]  2 O     -0.050286480000   0.283188270000   1.730966960000 AA   -0.095027674968   0.535148271989   3.271053485071 Bohr   0.0
[INPUT]  3 H      0.511332280000   1.022167500000   2.007574150000 AA    0.966277967849   1.931616628431   3.793765318256 Bohr   0.0
[INPUT]  4 H      0.079110460000   0.857726920000  -0.279413720000 AA    0.149497102988   1.620868968467  -0.528015406246 Bohr   0.0
[INPUT]  5 H      1.328002990000  -0.335046410000   0.281332220000 AA    2.509561943704  -0.633145953919   0.531640845816 Bohr   0.0
[INPUT]  6 H     -0.381305870000  -0.861203610000   0.029110100000 AA   -0.720563663989  -1.627438960387   0.055010116459 Bohr   0.0
[INPUT] ---------------- BASIS SET ---------------- 
[INPUT] l, kappa, [nprim/nctr], expnt,             c_1 c_2 ...
[INPUT] H
[INPUT] 0    0    [3    /1   ]  13.010701         0.019682158
                                1.9622572         0.13796524
                                0.44453796        0.47831935
[INPUT] 0    0    [1    /1   ]  0.12194962           1
[INPUT] 1    0    [1    /1   ]  0.8                  1
[INPUT] C
[INPUT] 0    0    [5    /1   ]  1238.4016938      0.0054568832082
                                186.29004992      0.040638409211
                                42.251176346      0.18025593888
                                11.676557932      0.46315121755
                                3.5930506482      0.44087173314
[INPUT] 0    0    [1    /1   ]  0.40245147363        1
[INPUT] 0    0    [1    /1   ]  0.13090182668        1
[INPUT] 1    0    [3    /1   ]  9.4680970621      0.038387871728
                                2.0103545142      0.21117025112
                                0.54771004707     0.51328172114
[INPUT] 1    0    [1    /1   ]  0.15268613795        1
[INPUT] 2    0    [1    /1   ]  0.8                  1
[INPUT] O
[INPUT] 0    0    [5    /1   ]  2266.1767785      -0.0053431809926
                                340.87010191      -0.03989003923
                                77.363135167      -0.17853911985
                                21.47964494       -0.46427684959
                                6.6589433124      -0.44309745172
[INPUT] 0    0    [1    /1   ]  0.80975975668        1
[INPUT] 0    0    [1    /1   ]  0.25530772234        1
[INPUT] 1    0    [3    /1   ]  17.721504317      0.043394573193
                                3.863550544       0.23094120765
                                1.0480920883      0.51375311064
[INPUT] 1    0    [1    /1   ]  0.27641544411        1
[INPUT] 2    0    [1    /1   ]  1.2                  1

nuclear repulsion = 39.9730320627778
number of shells = 24
number of NR pGTOs = 76
number of NR cGTOs = 48
basis = def2-SVP
ecp = {}
CPU time:         4.88


******** <class 'gpu4pyscf.df.df_jk.DFRKS'> ********
method = DFRKS
initial guess = minao
damping factor = None
level_shift factor = None
DIIS = <class 'gpu4pyscf.scf.diis.CDIIS'>
diis_start_cycle = 1
diis_space = 8
diis_damp = 0
SCF conv_tol = 1e-10
SCF conv_tol_grad = None
SCF max_cycles = 50
direct_scf = False
XC library gpu4pyscf.dft.libxc version 7.0.0 (CUDA)
    unable to decode the reference due to https://github.com/NVIDIA/cuda-python/issues/29
XC functionals = PBE0
radial grids: 
Treutler-Ahlrichs [JCP 102, 346 (1995); DOI:10.1063/1.469408] (M4) radial grids

becke partition: Becke, JCP 88, 2547 (1988); DOI:10.1063/1.454033
pruning grids: <function nwchem_prune at 0x7f0b39510fe0>
grids dens level: 3
symmetrized grids: False
atomic radii adjust function: <function treutler_atomic_radii_adjust at 0x7f0b39511120>
User specified grid scheme (99, 590)
small_rho_cutoff = 1e-07
Set gradient conv threshold to 1e-05
    CPU time for generating initial guess                                1.10 sec, wall time      0.10 sec, GPU time    100.65 ms
Number of shells for each [l, nprim] group
    [0 5] : 2
    [0 3] : 4
    [0 1] : 8
    [1 3] : 2
    [1 1] : 6
    [2 1] : 2
sp_blocks = 21, ksh_blocks = 1, shm_size = 59512 B
    CPU time for processing contract_int3c2e_auxvec                      0.00 sec, wall time      0.00 sec, GPU time      2.93 ms
Number of shells for each [l, nprim] group
    [0 5] : 2
    [0 3] : 4
    [0 1] : 8
    [1 3] : 2
    [1 1] : 6
    [2 1] : 2
Number of shells for each [l, nprim] group
    [0 5] : 2
    [0 3] : 4
    [0 1] : 8
    [1 3] : 2
    [1 1] : 6
    [2 1] : 2
    CPU time for hcore                                                   0.17 sec, wall time      0.14 sec, GPU time    135.64 ms
atom C rad-grids = 99, ang-grids = [ 50  50  50  50  50  50  50  50  50  50  50  50  50  50  50  50  50  50
  50  50  50  50  50  50  50  50  50  50  50  50  86  86  86  86  86  86
  86  86  86  86  86  86 434 434 434 434 434 434 434 434 434 590 590 590
 590 590 590 590 590 590 590 590 590 590 590 590 590 590 590 590 590 590
 590 590 590 590 590 434 434 434 434 434 434 434 434 434 434 434 434 434
 434 434 434 434 434 434 434 434 434]
atom O rad-grids = 99, ang-grids = [ 50  50  50  50  50  50  50  50  50  50  50  50  50  50  50  50  50  50
  50  50  50  50  50  50  50  50  50  50  50  50  86  86  86  86  86  86
  86  86  86  86  86  86  86 434 434 434 434 434 434 434 434 590 590 590
 590 590 590 590 590 590 590 590 590 590 590 590 590 590 590 590 590 590
 590 590 590 590 590 590 434 434 434 434 434 434 434 434 434 434 434 434
 434 434 434 434 434 434 434 434 434]
atom H rad-grids = 99, ang-grids = [ 50  50  50  50  50  50  50  50  50  50  50  50  50  50  50  50  50  50
  50  50  50  50  50  50  50  50  50  50  50  50  86  86  86  86  86  86
  86 434 434 434 434 434 434 434 434 434 434 590 590 590 590 590 590 590
 590 590 590 590 590 590 590 590 590 590 590 590 590 590 590 590 590 590
 590 590 434 434 434 434 434 434 434 434 434 434 434 434 434 434 434 434
 434 434 434 434 434 434 434 434 434]
    CPU time for generating atomic grids                                 0.01 sec, wall time      0.01 sec, GPU time      6.18 ms
Padding 236 grids
    CPU time for sorting grids                                           0.02 sec, wall time      0.02 sec, GPU time     16.49 ms
tot grids = 195584
Number of shells for each [l, nctr] group
    [0 1] : 8
    [0 3] : 4
    [0 5] : 2
    [1 1] : 6
    [1 3] : 2
    [2 1] : 2
0 - 195584 grids are calculated on Device 0.
mem_info: unallocated=13104.94 MB, used=9.78 MB, free=15.09 MB, free_blocks=17
13757.34784 MB memory is available on Device 0, block_size None
    CPU time for eval rho                                                0.03 sec, wall time      0.03 sec, GPU time     32.15 ms
Drop grids 21786
prune_by_density_: 26 padding grids
    CPU time for setting up grids                                        0.06 sec, wall time      0.06 sec, GPU time     59.26 ms
173824 grids on Device 0
0 - 173824 grids are calculated on Device 0.
mem_info: unallocated=13136.94 MB, used=15.52 MB, free=19.13 MB, free_blocks=20
13795.13344 MB memory is available on Device 0, block_size None
    CPU time for eval rho on Device 0                                    0.03 sec, wall time      0.03 sec, GPU time     27.08 ms
    CPU time for eval vxc on Device 0                                    0.05 sec, wall time      0.05 sec, GPU time     53.32 ms
0 - 173824 grids are calculated on Device 0.
mem_info: unallocated=13112.94 MB, used=20.24 MB, free=29.69 MB, free_blocks=22
13781.047296 MB memory is available on Device 0, block_size None
    CPU time for eval integration on 0                                   0.01 sec, wall time      0.01 sec, GPU time     16.81 ms
    CPU time for nr_rks                                                  0.10 sec, wall time      0.10 sec, GPU time     99.79 ms
nelec by numeric integration = 17.97651805474561
    CPU time for vxc                                                     0.16 sec, wall time      0.16 sec, GPU time    159.16 ms
Build CDERI ...
Psi4 predefined JKFIT basis set def2-svp-jkfit for HF
Default auxbasis def2-svp-jkfit is applied universally
num shells = 74, num cGTOs = 224
    CPU time for 2c2e                                                    0.04 sec, wall time      0.01 sec, GPU time      8.14 ms
Number of shells for each [l, nctr] group
    [0 1] : 8
    [0 3] : 4
    [0 5] : 2
    [1 1] : 6
    [1 3] : 2
    [2 1] : 2
Number of shells for each [l, nctr] group
    [0 1] : 22
    [0 3] : 4
    [0 5] : 2
    [1 1] : 22
    [1 3] : 2
    [2 1] : 15
    [2 2] : 1
    [2 3] : 1
    [3 1] : 2
    [3 2] : 1
    [4 1] : 2
    CPU time for Initialize q_cond                                       0.15 sec, wall time      0.01 sec, GPU time      6.94 ms
    CPU time for Get AO pairing                                          0.00 sec, wall time      0.00 sec, GPU time      0.32 ms
    CPU time for AO indices                                              0.00 sec, wall time      0.00 sec, GPU time      0.10 ms
    CPU time for Aux AO indices                                          0.00 sec, wall time      0.00 sec, GPU time      0.16 ms
    CPU time for Get AO pairs                                            0.02 sec, wall time      0.00 sec, GPU time      0.48 ms
    CPU time for prepare intopt                                          0.22 sec, wall time      0.01 sec, GPU time     10.07 ms
size of aux basis 224
Saving CDERI on GPU
CDERI size 0.002 GB on Device 0
    CPU time for Initialize GPU cache on Device 0                        0.00 sec, wall time      0.00 sec, GPU time      0.31 ms
    CPU time for solve 5 / 21 on Device 0                                0.06 sec, wall time      0.05 sec, GPU time     47.17 ms
    CPU time for transfer data for 5 / 21 on Device 0                    0.00 sec, wall time      0.00 sec, GPU time      0.44 ms
    CPU time for solve 4 / 21 on Device 0                                0.00 sec, wall time      0.00 sec, GPU time      2.34 ms
    CPU time for transfer data for 4 / 21 on Device 0                    0.00 sec, wall time      0.00 sec, GPU time      0.08 ms
    CPU time for solve 2 / 21 on Device 0                                0.00 sec, wall time      0.00 sec, GPU time      1.68 ms
    CPU time for transfer data for 2 / 21 on Device 0                    0.00 sec, wall time      0.00 sec, GPU time      0.05 ms
    CPU time for solve 12 / 21 on Device 0                               0.00 sec, wall time      0.00 sec, GPU time      2.76 ms
    CPU time for transfer data for 12 / 21 on Device 0                   0.00 sec, wall time      0.00 sec, GPU time      0.05 ms
    CPU time for solve 3 / 21 on Device 0                                0.00 sec, wall time      0.00 sec, GPU time      1.36 ms
    CPU time for transfer data for 3 / 21 on Device 0                    0.00 sec, wall time      0.00 sec, GPU time      0.06 ms
    CPU time for solve 17 / 21 on Device 0                               0.00 sec, wall time      0.00 sec, GPU time      2.37 ms
    CPU time for transfer data for 17 / 21 on Device 0                   0.00 sec, wall time      0.00 sec, GPU time      0.07 ms
    CPU time for solve 14 / 21 on Device 0                               0.00 sec, wall time      0.00 sec, GPU time      3.82 ms
    CPU time for transfer data for 14 / 21 on Device 0                   0.00 sec, wall time      0.00 sec, GPU time      0.05 ms
    CPU time for solve 11 / 21 on Device 0                               0.00 sec, wall time      0.00 sec, GPU time      2.09 ms
    CPU time for transfer data for 11 / 21 on Device 0                   0.00 sec, wall time      0.00 sec, GPU time      0.05 ms
    CPU time for solve 1 / 21 on Device 0                                0.00 sec, wall time      0.00 sec, GPU time      1.41 ms
    CPU time for transfer data for 1 / 21 on Device 0                    0.00 sec, wall time      0.00 sec, GPU time      0.05 ms
    CPU time for solve 0 / 21 on Device 0                                0.00 sec, wall time      0.00 sec, GPU time      1.45 ms
    CPU time for transfer data for 0 / 21 on Device 0                    0.00 sec, wall time      0.00 sec, GPU time      0.06 ms
    CPU time for solve 8 / 21 on Device 0                                0.00 sec, wall time      0.00 sec, GPU time      1.77 ms
    CPU time for transfer data for 8 / 21 on Device 0                    0.00 sec, wall time      0.00 sec, GPU time      0.05 ms
    CPU time for solve 16 / 21 on Device 0                               0.00 sec, wall time      0.00 sec, GPU time      1.67 ms
    CPU time for transfer data for 16 / 21 on Device 0                   0.00 sec, wall time      0.00 sec, GPU time      0.05 ms
    CPU time for solve 10 / 21 on Device 0                               0.00 sec, wall time      0.00 sec, GPU time      1.70 ms
    CPU time for transfer data for 10 / 21 on Device 0                   0.00 sec, wall time      0.00 sec, GPU time      0.05 ms
    CPU time for solve 20 / 21 on Device 0                               0.00 sec, wall time      0.00 sec, GPU time      2.96 ms
    CPU time for transfer data for 20 / 21 on Device 0                   0.00 sec, wall time      0.00 sec, GPU time      0.05 ms
    CPU time for solve 19 / 21 on Device 0                               0.00 sec, wall time      0.00 sec, GPU time      2.00 ms
    CPU time for transfer data for 19 / 21 on Device 0                   0.00 sec, wall time      0.00 sec, GPU time      0.05 ms
    CPU time for solve 7 / 21 on Device 0                                0.00 sec, wall time      0.00 sec, GPU time      1.48 ms
    CPU time for transfer data for 7 / 21 on Device 0                    0.00 sec, wall time      0.00 sec, GPU time      0.05 ms
    CPU time for solve 15 / 21 on Device 0                               0.00 sec, wall time      0.00 sec, GPU time      1.34 ms
    CPU time for transfer data for 15 / 21 on Device 0                   0.00 sec, wall time      0.00 sec, GPU time      0.05 ms
    CPU time for solve 13 / 21 on Device 0                               0.00 sec, wall time      0.00 sec, GPU time      1.64 ms
    CPU time for transfer data for 13 / 21 on Device 0                   0.00 sec, wall time      0.00 sec, GPU time      0.05 ms
    CPU time for solve 6 / 21 on Device 0                                0.00 sec, wall time      0.00 sec, GPU time      1.29 ms
    CPU time for transfer data for 6 / 21 on Device 0                    0.00 sec, wall time      0.00 sec, GPU time      0.05 ms
    CPU time for solve 9 / 21 on Device 0                                0.00 sec, wall time      0.00 sec, GPU time      1.39 ms
    CPU time for transfer data for 9 / 21 on Device 0                    0.00 sec, wall time      0.00 sec, GPU time      0.05 ms
    CPU time for solve 18 / 21 on Device 0                               0.00 sec, wall time      0.00 sec, GPU time      1.49 ms
    CPU time for transfer data for 18 / 21 on Device 0                   0.00 sec, wall time      0.00 sec, GPU time      0.05 ms
    CPU time for cholesky_eri                                            0.39 sec, wall time      0.10 sec, GPU time    100.37 ms
    CPU time for init jk                                                 0.43 sec, wall time      0.11 sec, GPU time    108.60 ms
15.037 GB memory available on Device 0, block size = 64
    CPU time for vj and vk on Device 0                                   0.01 sec, wall time      0.01 sec, GPU time      7.18 ms
    CPU time for vj and vk                                               0.01 sec, wall time      0.01 sec, GPU time      8.69 ms
    CPU time for veff                                                    0.44 sec, wall time      0.12 sec, GPU time    118.73 ms
E1 = -234.3316022957087  Ecoul = 94.01932577167219  Exc = -15.129718938826292
init E= -115.468963400085
cond(S) = 411.7600617647913
    CPU time for SCF initialization                                      1.88 sec, wall time      0.53 sec, GPU time    531.40 ms
    CPU time for DIIS                                                    0.00 sec, wall time      0.00 sec, GPU time      0.29 ms
    CPU time for eig                                                     0.00 sec, wall time      0.00 sec, GPU time      1.30 ms
  HOMO = -0.362112251872551  LUMO = 0.0147116716762862
173824 grids on Device 0
0 - 173824 grids are calculated on Device 0.
mem_info: unallocated=13098.94 MB, used=18.36 MB, free=37.57 MB, free_blocks=27
13774.629376 MB memory is available on Device 0, block_size None
    CPU time for eval rho on Device 0                                    0.01 sec, wall time      0.01 sec, GPU time     14.66 ms
    CPU time for eval vxc on Device 0                                    0.00 sec, wall time      0.00 sec, GPU time      1.47 ms
0 - 173824 grids are calculated on Device 0.
mem_info: unallocated=13090.94 MB, used=23.07 MB, free=32.86 MB, free_blocks=24
13761.298432 MB memory is available on Device 0, block_size None
    CPU time for eval integration on 0                                   0.01 sec, wall time      0.01 sec, GPU time      9.66 ms
    CPU time for nr_rks                                                  0.03 sec, wall time      0.03 sec, GPU time     27.79 ms
nelec by numeric integration = 17.999999975923558
    CPU time for vxc                                                     0.03 sec, wall time      0.03 sec, GPU time     27.87 ms
15.037 GB memory available on Device 0, block size = 64
    CPU time for vj and vk on Device 0                                   0.01 sec, wall time      0.01 sec, GPU time      6.34 ms
    CPU time for vj and vk                                               0.01 sec, wall time      0.01 sec, GPU time      7.94 ms
    CPU time for veff                                                    0.01 sec, wall time      0.01 sec, GPU time      8.46 ms
    CPU time for veff                                                    0.04 sec, wall time      0.04 sec, GPU time     37.89 ms
E1 = -238.10976515414953  Ecoul = 98.28751817745382  Exc = -15.581320469846396
    CPU time for cycle=1                                                 0.04 sec, wall time      0.04 sec, GPU time     40.72 ms
cycle= 1 E= -115.430535383764  delta_E= 0.0384  |g|= 0.595  |ddm|= 2.07
diis-c [-0.3541919  1.       ]
    CPU time for DIIS                                                    0.00 sec, wall time      0.00 sec, GPU time      1.20 ms
    CPU time for eig                                                     0.00 sec, wall time      0.00 sec, GPU time      1.26 ms
  HOMO = -0.140685742945054  LUMO = 0.0773267833235333
173824 grids on Device 0
0 - 173824 grids are calculated on Device 0.
mem_info: unallocated=13098.94 MB, used=18.38 MB, free=37.55 MB, free_blocks=25
13774.608896 MB memory is available on Device 0, block_size None
    CPU time for eval rho on Device 0                                    0.01 sec, wall time      0.01 sec, GPU time     14.31 ms
    CPU time for eval vxc on Device 0                                    0.00 sec, wall time      0.00 sec, GPU time      1.44 ms
0 - 173824 grids are calculated on Device 0.
mem_info: unallocated=13090.94 MB, used=23.09 MB, free=32.84 MB, free_blocks=24
13761.277952 MB memory is available on Device 0, block_size None
    CPU time for eval integration on 0                                   0.01 sec, wall time      0.01 sec, GPU time      9.68 ms
    CPU time for nr_rks                                                  0.03 sec, wall time      0.03 sec, GPU time     26.13 ms
nelec by numeric integration = 17.999999931777477
    CPU time for vxc                                                     0.03 sec, wall time      0.03 sec, GPU time     26.21 ms
15.036 GB memory available on Device 0, block size = 64
    CPU time for vj and vk on Device 0                                   0.00 sec, wall time      0.00 sec, GPU time      3.66 ms
    CPU time for vj and vk                                               0.00 sec, wall time      0.00 sec, GPU time      4.94 ms
    CPU time for veff                                                    0.01 sec, wall time      0.01 sec, GPU time      5.46 ms
    CPU time for veff                                                    0.03 sec, wall time      0.03 sec, GPU time     32.39 ms
E1 = -233.65457490991318  Ecoul = 93.35889139664508  Exc = -15.050240833621897
    CPU time for cycle=2                                                 0.04 sec, wall time      0.04 sec, GPU time     35.57 ms
cycle= 2 E= -115.372892284112  delta_E= 0.0576  |g|= 0.816  |ddm|= 1.06
diis-c [-0.00946459  0.57978464  0.42021536]
    CPU time for DIIS                                                    0.00 sec, wall time      0.00 sec, GPU time      0.60 ms
    CPU time for eig                                                     0.00 sec, wall time      0.00 sec, GPU time      1.24 ms
  HOMO = -0.277877611880912  LUMO = 0.0645463369335504
173824 grids on Device 0
0 - 173824 grids are calculated on Device 0.
mem_info: unallocated=13098.94 MB, used=18.40 MB, free=37.53 MB, free_blocks=26
13774.58944 MB memory is available on Device 0, block_size None
    CPU time for eval rho on Device 0                                    0.01 sec, wall time      0.01 sec, GPU time     13.17 ms
    CPU time for eval vxc on Device 0                                    0.00 sec, wall time      0.00 sec, GPU time      1.40 ms
0 - 173824 grids are calculated on Device 0.
mem_info: unallocated=13090.94 MB, used=23.11 MB, free=32.82 MB, free_blocks=24
13761.258496 MB memory is available on Device 0, block_size None
    CPU time for eval integration on 0                                   0.01 sec, wall time      0.01 sec, GPU time      9.61 ms
    CPU time for nr_rks                                                  0.02 sec, wall time      0.02 sec, GPU time     24.85 ms
nelec by numeric integration = 17.999999962581466
    CPU time for vxc                                                     0.02 sec, wall time      0.02 sec, GPU time     24.91 ms
15.036 GB memory available on Device 0, block size = 64
    CPU time for vj and vk on Device 0                                   0.00 sec, wall time      0.00 sec, GPU time      3.43 ms
    CPU time for vj and vk                                               0.00 sec, wall time      0.00 sec, GPU time      4.66 ms
    CPU time for veff                                                    0.01 sec, wall time      0.01 sec, GPU time      5.14 ms
    CPU time for veff                                                    0.03 sec, wall time      0.03 sec, GPU time     30.76 ms
E1 = -236.25084696806195  Ecoul = 96.12894552692973  Exc = -15.348285551892415
    CPU time for cycle=3                                                 0.03 sec, wall time      0.03 sec, GPU time     33.30 ms
cycle= 3 E= -115.497154930247  delta_E= -0.124  |g|= 0.0399  |ddm|= 0.643
diis-c [-5.56592796e-04  1.17860139e-01  1.02708875e-01  7.79430986e-01]
    CPU time for DIIS                                                    0.00 sec, wall time      0.00 sec, GPU time      0.68 ms
    CPU time for eig                                                     0.00 sec, wall time      0.00 sec, GPU time      1.21 ms
  HOMO = -0.277441442404079  LUMO = 0.0651967896257807
173824 grids on Device 0
0 - 173824 grids are calculated on Device 0.
mem_info: unallocated=13098.94 MB, used=18.42 MB, free=37.52 MB, free_blocks=29
13774.569984 MB memory is available on Device 0, block_size None
    CPU time for eval rho on Device 0                                    0.01 sec, wall time      0.01 sec, GPU time     13.59 ms
    CPU time for eval vxc on Device 0                                    0.00 sec, wall time      0.00 sec, GPU time      1.54 ms
0 - 173824 grids are calculated on Device 0.
mem_info: unallocated=13090.94 MB, used=23.13 MB, free=32.80 MB, free_blocks=27
13761.23904 MB memory is available on Device 0, block_size None
    CPU time for eval integration on 0                                   0.01 sec, wall time      0.01 sec, GPU time      9.75 ms
    CPU time for nr_rks                                                  0.03 sec, wall time      0.03 sec, GPU time     25.59 ms
nelec by numeric integration = 17.999999962889394
    CPU time for vxc                                                     0.03 sec, wall time      0.03 sec, GPU time     25.66 ms
15.036 GB memory available on Device 0, block size = 64
    CPU time for vj and vk on Device 0                                   0.00 sec, wall time      0.00 sec, GPU time      3.70 ms
    CPU time for vj and vk                                               0.00 sec, wall time      0.00 sec, GPU time      4.95 ms
    CPU time for veff                                                    0.01 sec, wall time      0.01 sec, GPU time      5.50 ms
    CPU time for veff                                                    0.03 sec, wall time      0.03 sec, GPU time     31.87 ms
E1 = -236.30095420570643  Ecoul = 96.18233414439665  Exc = -15.351849375139976
    CPU time for cycle=4                                                 0.03 sec, wall time      0.03 sec, GPU time     34.48 ms
cycle= 4 E= -115.497437373672  delta_E= -0.000282  |g|= 0.0164  |ddm|= 0.0378
diis-c [-4.29129759e-05  2.24356505e-02  2.21184576e-02  3.22929016e-01
  6.32516876e-01]
    CPU time for DIIS                                                    0.00 sec, wall time      0.00 sec, GPU time      0.76 ms
    CPU time for eig                                                     0.00 sec, wall time      0.00 sec, GPU time      1.22 ms
  HOMO = -0.276205793473413  LUMO = 0.0659368305273514
173824 grids on Device 0
0 - 173824 grids are calculated on Device 0.
mem_info: unallocated=13098.94 MB, used=18.43 MB, free=37.50 MB, free_blocks=28
13774.550528 MB memory is available on Device 0, block_size None
    CPU time for eval rho on Device 0                                    0.01 sec, wall time      0.01 sec, GPU time     13.47 ms
    CPU time for eval vxc on Device 0                                    0.00 sec, wall time      0.00 sec, GPU time      1.42 ms
0 - 173824 grids are calculated on Device 0.
mem_info: unallocated=13090.94 MB, used=23.15 MB, free=32.78 MB, free_blocks=28
13761.219584 MB memory is available on Device 0, block_size None
    CPU time for eval integration on 0                                   0.01 sec, wall time      0.01 sec, GPU time      9.65 ms
    CPU time for nr_rks                                                  0.03 sec, wall time      0.03 sec, GPU time     25.27 ms
nelec by numeric integration = 17.99999996276326
    CPU time for vxc                                                     0.03 sec, wall time      0.03 sec, GPU time     25.33 ms
15.036 GB memory available on Device 0, block size = 64
    CPU time for vj and vk on Device 0                                   0.00 sec, wall time      0.00 sec, GPU time      3.60 ms
    CPU time for vj and vk                                               0.00 sec, wall time      0.00 sec, GPU time      4.86 ms
    CPU time for veff                                                    0.01 sec, wall time      0.01 sec, GPU time      5.36 ms
    CPU time for veff                                                    0.03 sec, wall time      0.03 sec, GPU time     31.37 ms
E1 = -236.2433861415648  Ecoul = 96.11971992196285  Exc = -15.346867467951952
    CPU time for cycle=5                                                 0.03 sec, wall time      0.03 sec, GPU time     34.06 ms
cycle= 5 E= -115.497501624776  delta_E= -6.43e-05  |g|= 0.00378  |ddm|= 0.0159
diis-c [-6.36264763e-07 -3.68847945e-03 -2.52103908e-03  4.47254345e-02
  2.24492621e-01  7.36991463e-01]
    CPU time for DIIS                                                    0.00 sec, wall time      0.00 sec, GPU time      0.86 ms
    CPU time for eig                                                     0.00 sec, wall time      0.00 sec, GPU time      1.21 ms
  HOMO = -0.276753623728415  LUMO = 0.065671120204877
173824 grids on Device 0
0 - 173824 grids are calculated on Device 0.
mem_info: unallocated=13098.94 MB, used=18.45 MB, free=37.48 MB, free_blocks=26
13774.531072 MB memory is available on Device 0, block_size None
    CPU time for eval rho on Device 0                                    0.01 sec, wall time      0.01 sec, GPU time     13.90 ms
    CPU time for eval vxc on Device 0                                    0.00 sec, wall time      0.00 sec, GPU time      1.43 ms
0 - 173824 grids are calculated on Device 0.
mem_info: unallocated=13090.94 MB, used=23.17 MB, free=32.77 MB, free_blocks=25
13761.200128 MB memory is available on Device 0, block_size None
    CPU time for eval integration on 0                                   0.01 sec, wall time      0.01 sec, GPU time      9.00 ms
    CPU time for nr_rks                                                  0.02 sec, wall time      0.03 sec, GPU time     25.14 ms
nelec by numeric integration = 17.9999999628293
    CPU time for vxc                                                     0.03 sec, wall time      0.03 sec, GPU time     25.21 ms
15.036 GB memory available on Device 0, block size = 64
    CPU time for vj and vk on Device 0                                   0.00 sec, wall time      0.00 sec, GPU time      3.48 ms
    CPU time for vj and vk                                               0.00 sec, wall time      0.00 sec, GPU time      4.71 ms
    CPU time for veff                                                    0.01 sec, wall time      0.01 sec, GPU time      5.29 ms
    CPU time for veff                                                    0.03 sec, wall time      0.03 sec, GPU time     31.19 ms
E1 = -236.25606358287547  Ecoul = 96.13350735974  Exc = -15.347980709987178
    CPU time for cycle=6                                                 0.03 sec, wall time      0.03 sec, GPU time     34.17 ms
cycle= 6 E= -115.497504870345  delta_E= -3.25e-06  |g|= 0.000208  |ddm|= 0.003
diis-c [-1.90566528e-08 -6.06348590e-04 -5.90678871e-04  1.19360002e-03
  1.66881419e-02  8.19505402e-02  9.01364745e-01]
    CPU time for DIIS                                                    0.00 sec, wall time      0.00 sec, GPU time      1.06 ms
    CPU time for eig                                                     0.00 sec, wall time      0.00 sec, GPU time      1.17 ms
  HOMO = -0.276761047712865  LUMO = 0.0656811418457705
173824 grids on Device 0
0 - 173824 grids are calculated on Device 0.
mem_info: unallocated=13098.94 MB, used=18.47 MB, free=37.46 MB, free_blocks=27
13774.511616 MB memory is available on Device 0, block_size None
    CPU time for eval rho on Device 0                                    0.01 sec, wall time      0.01 sec, GPU time     14.03 ms
    CPU time for eval vxc on Device 0                                    0.00 sec, wall time      0.00 sec, GPU time      1.39 ms
0 - 173824 grids are calculated on Device 0.
mem_info: unallocated=13090.94 MB, used=23.18 MB, free=32.75 MB, free_blocks=26
13761.180672 MB memory is available on Device 0, block_size None
    CPU time for eval integration on 0                                   0.01 sec, wall time      0.01 sec, GPU time      9.05 ms
    CPU time for nr_rks                                                  0.03 sec, wall time      0.03 sec, GPU time     25.23 ms
nelec by numeric integration = 17.999999962850797
    CPU time for vxc                                                     0.03 sec, wall time      0.03 sec, GPU time     25.30 ms
15.036 GB memory available on Device 0, block size = 64
    CPU time for vj and vk on Device 0                                   0.00 sec, wall time      0.00 sec, GPU time      3.81 ms
    CPU time for vj and vk                                               0.01 sec, wall time      0.01 sec, GPU time      5.04 ms
    CPU time for veff                                                    0.01 sec, wall time      0.01 sec, GPU time      5.58 ms
    CPU time for veff                                                    0.03 sec, wall time      0.03 sec, GPU time     31.62 ms
E1 = -236.25602137363012  Ecoul = 96.13346719899803  Exc = -15.347982770158687
    CPU time for cycle=7                                                 0.03 sec, wall time      0.03 sec, GPU time     34.59 ms
cycle= 7 E= -115.497504882013  delta_E= -1.17e-08  |g|= 4.26e-05  |ddm|= 0.000283
diis-c [-3.51786215e-10 -1.81857161e-05 -4.52825701e-05 -9.85644313e-04
 -3.39811960e-03 -6.54277511e-03  1.69728446e-01  8.41261561e-01]
    CPU time for DIIS                                                    0.00 sec, wall time      0.00 sec, GPU time      1.03 ms
    CPU time for eig                                                     0.00 sec, wall time      0.00 sec, GPU time      1.14 ms
  HOMO = -0.276768101950622  LUMO = 0.0656760382675446
173824 grids on Device 0
0 - 173824 grids are calculated on Device 0.
mem_info: unallocated=13098.94 MB, used=18.49 MB, free=37.44 MB, free_blocks=28
13774.49216 MB memory is available on Device 0, block_size None
    CPU time for eval rho on Device 0                                    0.01 sec, wall time      0.01 sec, GPU time     14.43 ms
    CPU time for eval vxc on Device 0                                    0.00 sec, wall time      0.00 sec, GPU time      1.47 ms
0 - 173824 grids are calculated on Device 0.
mem_info: unallocated=13090.94 MB, used=23.20 MB, free=32.73 MB, free_blocks=26
13761.161216 MB memory is available on Device 0, block_size None
    CPU time for eval integration on 0                                   0.01 sec, wall time      0.01 sec, GPU time      9.01 ms
    CPU time for nr_rks                                                  0.03 sec, wall time      0.03 sec, GPU time     25.61 ms
nelec by numeric integration = 17.99999996284958
    CPU time for vxc                                                     0.03 sec, wall time      0.03 sec, GPU time     25.68 ms
15.036 GB memory available on Device 0, block size = 64
    CPU time for vj and vk on Device 0                                   0.00 sec, wall time      0.00 sec, GPU time      3.62 ms
    CPU time for vj and vk                                               0.00 sec, wall time      0.00 sec, GPU time      4.85 ms
    CPU time for veff                                                    0.01 sec, wall time      0.01 sec, GPU time      5.29 ms
    CPU time for veff                                                    0.03 sec, wall time      0.03 sec, GPU time     31.68 ms
E1 = -236.25607110031413  Ecoul = 96.13352304557827  Exc = -15.347988890586997
    CPU time for cycle=8                                                 0.03 sec, wall time      0.03 sec, GPU time     34.54 ms
cycle= 8 E= -115.497504882545  delta_E= -5.32e-10  |g|= 5.35e-06  |ddm|= 5.35e-05
diis-c [-1.19386142e-11 -5.36900781e-07  5.25969781e-07 -1.12535276e-04
 -5.23522233e-04 -1.30973123e-03  2.57806031e-03  9.33752233e-02
  9.05992516e-01]
    CPU time for DIIS                                                    0.00 sec, wall time      0.00 sec, GPU time      1.13 ms
    CPU time for eig                                                     0.00 sec, wall time      0.00 sec, GPU time      1.15 ms
  HOMO = -0.276767446702728  LUMO = 0.0656765433237024
173824 grids on Device 0
0 - 173824 grids are calculated on Device 0.
mem_info: unallocated=13098.94 MB, used=18.51 MB, free=37.42 MB, free_blocks=29
13774.472704 MB memory is available on Device 0, block_size None
    CPU time for eval rho on Device 0                                    0.01 sec, wall time      0.01 sec, GPU time     13.85 ms
    CPU time for eval vxc on Device 0                                    0.00 sec, wall time      0.00 sec, GPU time      1.36 ms
0 - 173824 grids are calculated on Device 0.
mem_info: unallocated=13090.94 MB, used=23.22 MB, free=32.71 MB, free_blocks=28
13761.14176 MB memory is available on Device 0, block_size None
    CPU time for eval integration on 0                                   0.01 sec, wall time      0.01 sec, GPU time      9.01 ms
    CPU time for nr_rks                                                  0.02 sec, wall time      0.02 sec, GPU time     24.90 ms
nelec by numeric integration = 17.999999962849706
    CPU time for vxc                                                     0.02 sec, wall time      0.02 sec, GPU time     24.96 ms
15.036 GB memory available on Device 0, block size = 64
    CPU time for vj and vk on Device 0                                   0.00 sec, wall time      0.00 sec, GPU time      3.41 ms
    CPU time for vj and vk                                               0.00 sec, wall time      0.00 sec, GPU time      4.63 ms
    CPU time for veff                                                    0.01 sec, wall time      0.01 sec, GPU time      5.11 ms
    CPU time for veff                                                    0.03 sec, wall time      0.03 sec, GPU time     30.76 ms
E1 = -236.25605967283443  Ecoul = 96.13351007430806  Exc = -15.347987346803446
    CPU time for cycle=9                                                 0.03 sec, wall time      0.03 sec, GPU time     33.75 ms
cycle= 9 E= -115.497504882552  delta_E= -6.93e-12  |g|= 1.01e-06  |ddm|= 5.7e-06
    CPU time for SCF                                                     2.20 sec, wall time      0.85 sec, GPU time    847.70 ms
converged SCF energy = -115.497504882552


******** <class 'gpu4pyscf.df.grad.rks.Gradients'> for <class 'gpu4pyscf.df.df_jk.DFRKS'> ********
unit = Eh/Bohr
max_memory 4000 MB (current use 1188 MB)
Number of shells for each [l, nctr] group
    [0 1] : 8
    [0 3] : 4
    [0 5] : 2
    [1 1] : 6
    [1 3] : 2
    [2 1] : 2
    CPU time for Initialize q_cond                                       0.11 sec, wall time      0.01 sec, GPU time      5.74 ms
    CPU time for Get AO pairing                                          0.00 sec, wall time      0.00 sec, GPU time      0.44 ms
    CPU time for AO indices                                              0.00 sec, wall time      0.00 sec, GPU time      0.11 ms
    CPU time for Initialize GPU cache                                    0.00 sec, wall time      0.00 sec, GPU time      0.27 ms
    CPU time for gradients of h1e                                        0.41 sec, wall time      0.02 sec, GPU time     21.07 ms
173824 grids on Device 0
0 - 173824 grids are calculated on Device 0.
mem_info: unallocated=13098.94 MB, used=12.48 MB, free=43.45 MB, free_blocks=27
13780.790272 MB memory is available on Device 0, block_size None
    CPU time for gradient of vxc                                         2.54 sec, wall time      2.60 sec, GPU time   2594.69 ms
    CPU time for grad vxc                                                2.56 sec, wall time      2.60 sec, GPU time   2598.29 ms
    CPU time for vxc total                                               2.56 sec, wall time      2.60 sec, GPU time   2598.50 ms
Number of shells for each [l, nprim] group
    [0 5] : 2
    [0 3] : 4
    [0 1] : 8
    [1 3] : 2
    [1 1] : 6
    [2 1] : 2
Number of shells for each [l, nprim] group
    [0 5] : 2
    [0 3] : 4
    [0 1] : 22
    [1 3] : 2
    [1 1] : 22
    [2 3] : 1
    [2 2] : 1
    [2 1] : 15
    [3 2] : 1
    [3 1] : 2
    [4 1] : 2
dm_factor shape (50, 9)
sp_batches = 1, ksh_batches = 11
13.718 GB free memory. nao_pair=1329 naux=262 batch_size=262 blksize=262
    CPU time for contract dm                                             0.85 sec, wall time      0.86 sec, GPU time    864.66 ms
int2c2e_kernel, nimgs = 1
int2c2e_kernel, nimgs = 1
    CPU time for contract int2c2e_ip1                                    0.40 sec, wall time      0.42 sec, GPU time    417.69 ms
    CPU time for contract int3c2e_ejk_ip1                                0.02 sec, wall time      0.02 sec, GPU time     23.67 ms
    CPU time for gradients of veff                                       3.85 sec, wall time      3.92 sec, GPU time   3918.16 ms
Computing Gradients of NR-HF Coulomb repulsion
    CPU time for gradients of 2e part                                    3.85 sec, wall time      3.92 sec, GPU time   3918.22 ms
    CPU time for gradients of electronic part                            4.26 sec, wall time      3.94 sec, GPU time   3940.12 ms
    CPU time for SCF gradients                                           4.26 sec, wall time      3.94 sec, GPU time   3940.34 ms
--------------- DFRKS gradients ---------------
         x                y                z
0 C    -0.0018245723    -0.0095186091    -0.0153868688
1 O    -0.0018011876     0.0030462128     0.0112329869
2 H     0.0034474801     0.0056321114     0.0037847260
3 H    -0.0017310632     0.0067001766     0.0008920192
4 H     0.0052295564    -0.0001830844     0.0043129855
5 H    -0.0033202580    -0.0056777477    -0.0048329492
----------------------------------------------


******** <class 'gpu4pyscf.df.hessian.rks.Hessian'> for <class 'gpu4pyscf.df.df_jk.DFRKS'> ********
Max_memory 4000 MB (current use 1439 MB)
Partial Hessian with density fitting approximation
Memory available 14.00633192062378 GB
Psi4 predefined JKFIT basis set def2-svp-jkfit for HF
Default auxbasis def2-svp-jkfit is applied universally
num shells = 74, num cGTOs = 224
    CPU time for intermediate variables with int2c2e and int2c2e_ip1      0.33 sec, wall time      0.02 sec, GPU time     25.61 ms
Number of shells for each [l, nctr] group
    [0 1] : 8
    [0 3] : 4
    [0 5] : 2
    [1 1] : 6
    [1 3] : 2
    [2 1] : 2
Number of shells for each [l, nctr] group
    [0 1] : 22
    [0 3] : 4
    [0 5] : 2
    [1 1] : 22
    [1 3] : 2
    [2 1] : 15
    [2 2] : 1
    [2 3] : 1
    [3 1] : 2
    [3 2] : 1
    [4 1] : 2
    CPU time for Initialize q_cond                                       0.04 sec, wall time      0.00 sec, GPU time      3.13 ms
    CPU time for Get AO pairing                                          0.00 sec, wall time      0.00 sec, GPU time      0.38 ms
    CPU time for AO indices                                              0.00 sec, wall time      0.00 sec, GPU time      0.11 ms
    CPU time for Aux AO indices                                          0.00 sec, wall time      0.00 sec, GPU time      0.17 ms
    CPU time for Get AO pairs                                            0.02 sec, wall time      0.00 sec, GPU time      0.55 ms
    CPU time for Initialize GPU cache on Device 0                        0.02 sec, wall time      0.00 sec, GPU time      0.26 ms
    CPU time for int3c2e_vjk on Device 0                                 0.23 sec, wall time      0.15 sec, GPU time    145.64 ms
    CPU time for intermediate variables with int3c2e                     0.47 sec, wall time      0.18 sec, GPU time    177.20 ms
    CPU time for Initialize GPU cache on Device 0                        0.00 sec, wall time      0.00 sec, GPU time      0.23 ms
    CPU time for int3c2e_ipip on Device 0                                1.50 sec, wall time      1.51 sec, GPU time   1506.27 ms
    CPU time for intermediate variables with int3c2e_ipip                1.50 sec, wall time      1.51 sec, GPU time   1506.94 ms
    CPU time for int3c2e_ip2_wjk on Device 0                             0.38 sec, wall time      0.38 sec, GPU time    383.10 ms
    CPU time for intermediate variables with int3c2e_ip2                 0.38 sec, wall time      0.38 sec, GPU time    384.08 ms
    CPU time for int3c2e_ip1_wjk on Device 0                             0.23 sec, wall time      0.23 sec, GPU time    231.78 ms
    CPU time for intermediate variables with int3c2e_ip1                 0.23 sec, wall time      0.23 sec, GPU time    232.96 ms
GPU Memory 14.0 GB available, 20717 aux AOs per block
    CPU time for contract int3c2e_ip1 with int2c_ip1                     0.20 sec, wall time      0.20 sec, GPU time    202.20 ms
    CPU time for contract int3c2e_ip1 with int3c2e_ip1                   0.01 sec, wall time      0.01 sec, GPU time     14.68 ms
    CPU time for intermediate variables with int2c_*                     0.26 sec, wall time      0.07 sec, GPU time     68.30 ms
    CPU time for contract int2c_*                                        0.15 sec, wall time      0.07 sec, GPU time     72.28 ms
Number of shells for each [l, nctr] group
    [0 1] : 8
    [0 3] : 4
    [0 5] : 2
    [1 1] : 6
    [1 3] : 2
    [2 1] : 2
    CPU time for Initialize q_cond                                       0.09 sec, wall time      0.01 sec, GPU time      5.28 ms
    CPU time for Get AO pairing                                          0.00 sec, wall time      0.00 sec, GPU time      0.42 ms
    CPU time for AO indices                                              0.00 sec, wall time      0.00 sec, GPU time      0.11 ms
    CPU time for Initialize GPU cache                                    0.00 sec, wall time      0.00 sec, GPU time      0.28 ms
    CPU time for hess_nuc_elec                                           0.31 sec, wall time      0.12 sec, GPU time    124.26 ms
    CPU time for get_hcore                                               0.76 sec, wall time      0.04 sec, GPU time     36.00 ms
    CPU time for hcore generate                                          1.07 sec, wall time      0.16 sec, GPU time    161.94 ms
    CPU time for hcore contribution                                      0.75 sec, wall time      0.16 sec, GPU time    165.00 ms
    CPU time for RHF partial hessian                                     5.35 sec, wall time      3.01 sec, GPU time   3012.34 ms
    CPU time for computing ej, ek                                        5.35 sec, wall time      3.01 sec, GPU time   3012.86 ms
0 - 173824 grids are calculated on Device 0.
mem_info: unallocated=12474.94 MB, used=11.10 MB, free=29.05 MB, free_blocks=28
13111.37792 MB memory is available on Device 0, block_size None
0 - 173824 grids are calculated on Device 0.
mem_info: unallocated=12416.94 MB, used=40.54 MB, free=47.42 MB, free_blocks=31
13069.830656 MB memory is available on Device 0, block_size None
    CPU time for vxc_deriv2 on Device 0                                  0.91 sec, wall time      0.92 sec, GPU time    919.55 ms
    CPU time for RKS partial hessian                                     6.46 sec, wall time      4.13 sec, GPU time   4131.96 ms
    CPU time for hess elec                                               6.46 sec, wall time      4.13 sec, GPU time   4132.01 ms
Generate JK for RHF partial hessian
GPU memory 14.0 GB available
Psi4 predefined JKFIT basis set def2-svp-jkfit for HF
Default auxbasis def2-svp-jkfit is applied universally
num shells = 74, num cGTOs = 224
GPU Memory 14.0 GB available, 54368 aux AOs per block
Number of shells for each [l, nctr] group
    [0 1] : 8
    [0 3] : 4
    [0 5] : 2
    [1 1] : 6
    [1 3] : 2
    [2 1] : 2
Number of shells for each [l, nctr] group
    [0 1] : 22
    [0 3] : 4
    [0 5] : 2
    [1 1] : 22
    [1 3] : 2
    [2 1] : 15
    [2 2] : 1
    [2 3] : 1
    [3 1] : 2
    [3 2] : 1
    [4 1] : 2
    CPU time for Initialize q_cond                                       0.04 sec, wall time      0.00 sec, GPU time      2.98 ms
    CPU time for Get AO pairing                                          0.00 sec, wall time      0.00 sec, GPU time      0.61 ms
    CPU time for AO indices                                              0.00 sec, wall time      0.00 sec, GPU time      0.10 ms
    CPU time for Aux AO indices                                          0.00 sec, wall time      0.00 sec, GPU time      0.14 ms
    CPU time for Get AO pairs                                            0.02 sec, wall time      0.00 sec, GPU time      0.44 ms
    CPU time for Initialize GPU cache on Device 0                        0.00 sec, wall time      0.00 sec, GPU time      0.17 ms
    CPU time for Fock matrix due to int3c2e                              0.64 sec, wall time      0.23 sec, GPU time    234.08 ms
    CPU time for Initialize GPU cache on Device 0                        0.00 sec, wall time      0.00 sec, GPU time      0.26 ms
    CPU time for int3c2e_ip2_vjk on Device 0                             0.18 sec, wall time      0.18 sec, GPU time    182.87 ms
    CPU time for Fock matrix due to int3c2e_ip2                          0.20 sec, wall time      0.20 sec, GPU time    202.60 ms
GPU Memory 14.0 GB available, 62144 AOs per block
    CPU time for Fock matrix due to int2c2e_ip1                          0.15 sec, wall time      0.01 sec, GPU time      7.62 ms
    CPU time for int3c2e_ip1_vjk on Device 0                             0.44 sec, wall time      0.43 sec, GPU time    432.34 ms
    CPU time for Fock matrix due to int3c2e_ip1                          0.45 sec, wall time      0.43 sec, GPU time    434.61 ms
Number of shells for each [l, nctr] group
    [0 1] : 8
    [0 3] : 4
    [0 5] : 2
    [1 1] : 6
    [1 3] : 2
    [2 1] : 2
    CPU time for Initialize q_cond                                       0.12 sec, wall time      0.01 sec, GPU time      8.09 ms
    CPU time for Get AO pairing                                          0.03 sec, wall time      0.00 sec, GPU time      1.22 ms
    CPU time for AO indices                                              0.02 sec, wall time      0.00 sec, GPU time      1.22 ms
    CPU time for Aux AO indices                                          0.02 sec, wall time      0.00 sec, GPU time      1.23 ms
    CPU time for Get AO pairs                                            0.03 sec, wall time      0.00 sec, GPU time      1.24 ms
    CPU time for Initialize GPU cache on Device 0                        0.01 sec, wall time      0.00 sec, GPU time      4.91 ms
0 - 173824 grids are calculated on Device 0.
mem_info: unallocated=13016.94 MB, used=37.68 MB, free=1.30 MB, free_blocks=13
13650.611712 MB memory is available on Device 0, block_size None
    CPU time for vxc_deriv1 on Device 0                                  0.63 sec, wall time      0.63 sec, GPU time    632.42 ms
    CPU time for making H1                                               3.01 sec, wall time      1.80 sec, GPU time   1795.66 ms
GPU memory 14.0 GB available
27184 atoms in each block CPHF equation
Solving CPHF equation for atoms [0:6]
Secondary grids defined for CPHF in Hessian
atom C rad-grids = 50, ang-grids = [  6   6   6   6   6   6   6   6   6   6   6   6   6   6   6  38  38  38
  38  38  38  86  86  86  86 194 194 194 194 194 194 194 194 194 194 194
 194 194  86  86  86  86  86  86  86  86  86  86  86  86]
atom O rad-grids = 50, ang-grids = [  6   6   6   6   6   6   6   6   6   6   6   6   6   6  38  38  38  38
  38  38  86  86  86  86 194 194 194 194 194 194 194 194 194 194 194 194
 194  86  86  86  86  86  86  86  86  86  86  86  86  86]
atom H rad-grids = 50, ang-grids = [  6   6   6   6   6   6   6   6   6   6   6   6   6   6   6   6   6  38
  38  38  38  38  86  86  86  86  86 194 194 194 194 194 194 194 194 194
 194 194 194 194 194 194  86  86  86  86  86  86  86  86]
    CPU time for generating atomic grids                                 0.00 sec, wall time      0.00 sec, GPU time      1.99 ms
Padding 64 grids
    CPU time for sorting grids                                           0.00 sec, wall time      0.00 sec, GPU time      0.67 ms
tot grids = 25856
0 - 25856 grids are calculated on Device 0.
mem_info: unallocated=13058.94 MB, used=9.53 MB, free=2.29 MB, free_blocks=13
13695.689216 MB memory is available on Device 0, block_size None
    CPU time for eval rho in fxc                                         0.02 sec, wall time      0.02 sec, GPU time     17.22 ms
    CPU time for eval fxc                                                0.00 sec, wall time      0.00 sec, GPU time      1.36 ms
25856 grids on Device 0
0 - 25856 grids are calculated on Device 0.
mem_info: unallocated=13042.94 MB, used=16.98 MB, free=9.32 MB, free_blocks=23
13686.288384 MB memory is available on Device 0, block_size None
    CPU time for vxc on Device 0                                         0.11 sec, wall time      0.11 sec, GPU time    139.26 ms
    CPU time for nr_rks_fxc                                              0.14 sec, wall time      0.14 sec, GPU time    142.77 ms
Build CDERI ...
    CPU time for 2c2e                                                    0.02 sec, wall time      0.00 sec, GPU time      1.18 ms
Number of shells for each [l, nctr] group
    [0 1] : 8
    [0 3] : 4
    [0 5] : 2
    [1 1] : 6
    [1 3] : 2
    [2 1] : 2
Number of shells for each [l, nctr] group
    [0 1] : 22
    [0 3] : 4
    [0 5] : 2
    [1 1] : 22
    [1 3] : 2
    [2 1] : 15
    [2 2] : 1
    [2 3] : 1
    [3 1] : 2
    [3 2] : 1
    [4 1] : 2
    CPU time for Initialize q_cond                                       0.05 sec, wall time      0.00 sec, GPU time      1.23 ms
    CPU time for Get AO pairing                                          0.02 sec, wall time      0.00 sec, GPU time      1.22 ms
    CPU time for AO indices                                              0.02 sec, wall time      0.00 sec, GPU time      1.23 ms
    CPU time for Aux AO indices                                          0.02 sec, wall time      0.00 sec, GPU time      1.22 ms
    CPU time for Get AO pairs                                            0.05 sec, wall time      0.00 sec, GPU time      1.23 ms
    CPU time for prepare intopt                                          0.21 sec, wall time      0.01 sec, GPU time     10.01 ms
size of aux basis 224
Saving CDERI on GPU
CDERI size 0.002 GB on Device 0
    CPU time for Initialize GPU cache on Device 0                        0.00 sec, wall time      0.00 sec, GPU time      0.22 ms
    CPU time for solve 5 / 21 on Device 0                                0.00 sec, wall time      0.00 sec, GPU time      3.23 ms
    CPU time for transfer data for 5 / 21 on Device 0                    0.00 sec, wall time      0.00 sec, GPU time      0.06 ms
    CPU time for solve 4 / 21 on Device 0                                0.00 sec, wall time      0.00 sec, GPU time      1.94 ms
    CPU time for transfer data for 4 / 21 on Device 0                    0.00 sec, wall time      0.00 sec, GPU time      0.06 ms
    CPU time for solve 2 / 21 on Device 0                                0.00 sec, wall time      0.00 sec, GPU time      3.09 ms
    CPU time for transfer data for 2 / 21 on Device 0                    0.00 sec, wall time      0.00 sec, GPU time      1.22 ms
    CPU time for solve 12 / 21 on Device 0                               0.02 sec, wall time      0.03 sec, GPU time     24.94 ms
    CPU time for transfer data for 12 / 21 on Device 0                   0.00 sec, wall time      0.00 sec, GPU time      1.22 ms
    CPU time for solve 3 / 21 on Device 0                                0.01 sec, wall time      0.01 sec, GPU time      9.67 ms
    CPU time for transfer data for 3 / 21 on Device 0                    0.00 sec, wall time      0.00 sec, GPU time      0.05 ms
    CPU time for solve 17 / 21 on Device 0                               0.00 sec, wall time      0.00 sec, GPU time      2.52 ms
    CPU time for transfer data for 17 / 21 on Device 0                   0.00 sec, wall time      0.00 sec, GPU time      0.05 ms
    CPU time for solve 14 / 21 on Device 0                               0.00 sec, wall time      0.00 sec, GPU time      2.61 ms
    CPU time for transfer data for 14 / 21 on Device 0                   0.00 sec, wall time      0.00 sec, GPU time      0.05 ms
    CPU time for solve 11 / 21 on Device 0                               0.00 sec, wall time      0.00 sec, GPU time      1.98 ms
    CPU time for transfer data for 11 / 21 on Device 0                   0.00 sec, wall time      0.00 sec, GPU time      0.06 ms
    CPU time for solve 1 / 21 on Device 0                                0.00 sec, wall time      0.00 sec, GPU time      1.37 ms
    CPU time for transfer data for 1 / 21 on Device 0                    0.00 sec, wall time      0.00 sec, GPU time      0.05 ms
    CPU time for solve 0 / 21 on Device 0                                0.00 sec, wall time      0.00 sec, GPU time      1.42 ms
    CPU time for transfer data for 0 / 21 on Device 0                    0.00 sec, wall time      0.00 sec, GPU time      0.05 ms
    CPU time for solve 8 / 21 on Device 0                                0.00 sec, wall time      0.00 sec, GPU time      1.70 ms
    CPU time for transfer data for 8 / 21 on Device 0                    0.00 sec, wall time      0.00 sec, GPU time      1.58 ms
    CPU time for solve 16 / 21 on Device 0                               0.02 sec, wall time      0.02 sec, GPU time     24.05 ms
    CPU time for transfer data for 16 / 21 on Device 0                   0.00 sec, wall time      0.00 sec, GPU time      1.22 ms
    CPU time for solve 10 / 21 on Device 0                               0.01 sec, wall time      0.01 sec, GPU time     10.85 ms
    CPU time for transfer data for 10 / 21 on Device 0                   0.00 sec, wall time      0.00 sec, GPU time      0.05 ms
    CPU time for solve 20 / 21 on Device 0                               0.00 sec, wall time      0.00 sec, GPU time      1.55 ms
    CPU time for transfer data for 20 / 21 on Device 0                   0.00 sec, wall time      0.00 sec, GPU time      0.05 ms
    CPU time for solve 19 / 21 on Device 0                               0.00 sec, wall time      0.00 sec, GPU time      1.75 ms
    CPU time for transfer data for 19 / 21 on Device 0                   0.00 sec, wall time      0.00 sec, GPU time      0.05 ms
    CPU time for solve 7 / 21 on Device 0                                0.00 sec, wall time      0.00 sec, GPU time      1.46 ms
    CPU time for transfer data for 7 / 21 on Device 0                    0.00 sec, wall time      0.00 sec, GPU time      0.05 ms
    CPU time for solve 15 / 21 on Device 0                               0.00 sec, wall time      0.00 sec, GPU time      1.34 ms
    CPU time for transfer data for 15 / 21 on Device 0                   0.00 sec, wall time      0.00 sec, GPU time      0.05 ms
    CPU time for solve 13 / 21 on Device 0                               0.00 sec, wall time      0.00 sec, GPU time      1.60 ms
    CPU time for transfer data for 13 / 21 on Device 0                   0.00 sec, wall time      0.00 sec, GPU time      0.05 ms
    CPU time for solve 6 / 21 on Device 0                                0.00 sec, wall time      0.00 sec, GPU time      1.32 ms
    CPU time for transfer data for 6 / 21 on Device 0                    0.00 sec, wall time      0.00 sec, GPU time      0.08 ms
    CPU time for solve 9 / 21 on Device 0                                0.00 sec, wall time      0.00 sec, GPU time      1.39 ms
    CPU time for transfer data for 9 / 21 on Device 0                    0.00 sec, wall time      0.00 sec, GPU time      0.06 ms
    CPU time for solve 18 / 21 on Device 0                               0.00 sec, wall time      0.00 sec, GPU time      1.47 ms
    CPU time for transfer data for 18 / 21 on Device 0                   0.00 sec, wall time      0.00 sec, GPU time      0.05 ms
    CPU time for cholesky_eri                                            0.32 sec, wall time      0.12 sec, GPU time    120.81 ms
    CPU time for init jk                                                 0.35 sec, wall time      0.12 sec, GPU time    122.03 ms
15.029 GB memory available on Device 0, block size = 64
    CPU time for vj and vk on Device 0                                   0.03 sec, wall time      0.03 sec, GPU time     33.13 ms
    CPU time for vj and vk                                               0.03 sec, wall time      0.03 sec, GPU time     34.31 ms
krylov cycle 0, r = 1.848e-01, 15 equations
Secondary grids defined for CPHF in Hessian
0 - 25856 grids are calculated on Device 0.
mem_info: unallocated=13022.94 MB, used=11.90 MB, free=33.40 MB, free_blocks=31
13690.566144 MB memory is available on Device 0, block_size None
    CPU time for eval rho in fxc                                         0.00 sec, wall time      0.00 sec, GPU time      4.47 ms
    CPU time for eval fxc                                                0.00 sec, wall time      0.00 sec, GPU time      1.09 ms
25856 grids on Device 0
0 - 25856 grids are calculated on Device 0.
mem_info: unallocated=13022.94 MB, used=19.12 MB, free=26.19 MB, free_blocks=29
13682.998784 MB memory is available on Device 0, block_size None
    CPU time for vxc on Device 0                                         0.03 sec, wall time      0.03 sec, GPU time     42.66 ms
    CPU time for nr_rks_fxc                                              0.04 sec, wall time      0.05 sec, GPU time     46.19 ms
15.029 GB memory available on Device 0, block size = 64
    CPU time for vj and vk on Device 0                                   0.02 sec, wall time      0.02 sec, GPU time     24.32 ms
    CPU time for vj and vk                                               0.03 sec, wall time      0.03 sec, GPU time     25.83 ms
krylov cycle 1, r = 1.907e-02, 12 equations
Secondary grids defined for CPHF in Hessian
0 - 25856 grids are calculated on Device 0.
mem_info: unallocated=13020.94 MB, used=11.83 MB, free=33.47 MB, free_blocks=32
13688.538624 MB memory is available on Device 0, block_size None
    CPU time for eval rho in fxc                                         0.00 sec, wall time      0.00 sec, GPU time      4.11 ms
    CPU time for eval fxc                                                0.00 sec, wall time      0.00 sec, GPU time      1.05 ms
25856 grids on Device 0
0 - 25856 grids are calculated on Device 0.
mem_info: unallocated=13020.94 MB, used=18.82 MB, free=26.48 MB, free_blocks=31
13681.212928 MB memory is available on Device 0, block_size None
    CPU time for vxc on Device 0                                         0.01 sec, wall time      0.01 sec, GPU time     25.41 ms
    CPU time for nr_rks_fxc                                              0.03 sec, wall time      0.03 sec, GPU time     28.78 ms
15.030 GB memory available on Device 0, block size = 64
    CPU time for vj and vk on Device 0                                   0.01 sec, wall time      0.01 sec, GPU time     17.06 ms
    CPU time for vj and vk                                               0.02 sec, wall time      0.02 sec, GPU time     19.60 ms
krylov cycle 2, r = 1.228e-03, 6 equations
krylov space size 36
Secondary grids defined for CPHF in Hessian
0 - 25856 grids are calculated on Device 0.
mem_info: unallocated=13020.94 MB, used=11.91 MB, free=33.39 MB, free_blocks=34
13688.45568 MB memory is available on Device 0, block_size None
    CPU time for eval rho in fxc                                         0.00 sec, wall time      0.00 sec, GPU time      4.27 ms
    CPU time for eval fxc                                                0.00 sec, wall time      0.00 sec, GPU time      1.06 ms
25856 grids on Device 0
0 - 25856 grids are calculated on Device 0.
mem_info: unallocated=13020.94 MB, used=19.36 MB, free=25.94 MB, free_blocks=33
13680.646144 MB memory is available on Device 0, block_size None
    CPU time for vxc on Device 0                                         0.03 sec, wall time      0.03 sec, GPU time     43.03 ms
    CPU time for nr_rks_fxc                                              0.04 sec, wall time      0.04 sec, GPU time     44.59 ms
15.029 GB memory available on Device 0, block size = 64
    CPU time for vj and vk on Device 0                                   0.03 sec, wall time      0.03 sec, GPU time     34.72 ms
    CPU time for vj and vk                                               0.04 sec, wall time      0.04 sec, GPU time     36.88 ms
    CPU time for CPHF solver                                             4.22 sec, wall time      3.91 sec, GPU time   3905.40 ms
    CPU time for solving MO1                                             4.22 sec, wall time      3.91 sec, GPU time   3906.28 ms
    CPU time for RHF hessian                                            13.91 sec, wall time      9.85 sec, GPU time   9849.31 ms
    CPU time for SCF hessian     13.91 sec, wall time      9.85 sec
Mode                                 0                   1                   2
Irrep
Freq [cm^-1]                      430.8275           1039.5784           1102.3630
Reduced mass [au]                   1.0680              4.0105              1.2402
Force const [Dyne/A]                0.1168              2.5537              0.8880
Char temp [K]                     619.8649           1495.7219           1586.0549
Normal mode                   x     y     z       x     y     z       x     y     z
       0   C                -0.00  0.00 -0.00   -0.02  0.06  0.16    0.07  0.03 -0.09
       1   O                 0.04 -0.04  0.02    0.03 -0.04 -0.16   -0.02  0.01  0.05
       2   H                -0.60  0.55 -0.26   -0.12 -0.05  0.17   -0.23 -0.00  0.52
       3   H                 0.21  0.10  0.07   -0.07 -0.05  0.00   -0.09 -0.18 -0.31
       4   H                -0.07 -0.23 -0.01   -0.05 -0.07  0.01   -0.03 -0.23 -0.27
       5   H                -0.19  0.18 -0.09   -0.10  0.05  0.34   -0.17  0.01  0.41
Mode                                 3                   4                   5
Irrep
Freq [cm^-1]                     1190.7282           1374.9434           1472.1659
Reduced mass [au]                   1.2779              1.2825              1.1451
Force const [Dyne/A]                1.0675              1.4285              1.4622
Char temp [K]                    1713.1928           1978.2374           2118.1190
Normal mode                   x     y     z       x     y     z       x     y     z
       0   C                -0.09  0.08 -0.04    0.07  0.08  0.00    0.01 -0.04 -0.09
       1   O                 0.04 -0.04  0.02   -0.05 -0.04  0.03    0.01 -0.00 -0.02
       2   H                -0.00  0.00 -0.00    0.27 -0.02 -0.66   -0.01 -0.00  0.02
       3   H                 0.28 -0.17 -0.48   -0.17 -0.07 -0.13    0.01  0.32  0.40
       4   H                -0.06 -0.03  0.59   -0.02 -0.22 -0.05    0.12  0.22  0.45
       5   H                 0.19 -0.18  0.08   -0.09  0.07  0.37   -0.28 -0.05  0.51
Mode                                 6                   7                   8
Irrep
Freq [cm^-1]                     1475.2939           1487.6236           2930.6938
Reduced mass [au]                   1.0434              1.0410              1.0331
Force const [Dyne/A]                1.3380              1.3574              5.2281
Char temp [K]                    2122.6194           2140.3591           4216.6159
Normal mode                   x     y     z       x     y     z       x     y     z
       0   C                -0.04  0.04 -0.02    0.03  0.02 -0.02   -0.02 -0.01  0.04
       1   O                -0.01  0.01 -0.00    0.02  0.01 -0.01   -0.00  0.00  0.00
       2   H                -0.01  0.00  0.00   -0.05  0.01  0.12    0.00  0.00  0.00
       3   H                 0.23  0.30  0.30   -0.63  0.01  0.18   -0.12  0.53 -0.38
       4   H                -0.16 -0.37 -0.26   -0.10 -0.49  0.42    0.60 -0.18 -0.04
       5   H                 0.48 -0.46  0.21    0.12  0.02 -0.25   -0.21 -0.27 -0.11
Mode                                 9                  10                  11
Irrep
Freq [cm^-1]                     3006.9316           3066.6488           3805.2663
Reduced mass [au]                   1.1067              1.1047              1.0671
Force const [Dyne/A]                5.8958              6.1211              9.1040
Char temp [K]                    4326.3051           4412.2249           5474.9310
Normal mode                   x     y     z       x     y     z       x     y     z
       0   C                -0.06  0.06 -0.03    0.06  0.07  0.01   -0.00 -0.00  0.00
       1   O                 0.00 -0.00  0.00   -0.00 -0.00 -0.00   -0.03 -0.05 -0.02
       2   H                 0.00 -0.00  0.00    0.01  0.01 -0.00    0.56  0.74  0.28
       3   H                 0.10 -0.53  0.37    0.05 -0.18  0.13   -0.00  0.00  0.00
       4   H                 0.66 -0.18 -0.05   -0.23  0.08  0.01   -0.00  0.00  0.00
       5   H                -0.03 -0.01 -0.01   -0.52 -0.67 -0.26    0.01  0.01  0.00
temperature 298.1500 [K]
pressure 101325.00 [Pa]
Rotational constants [GHz] 123.95909 24.54245 23.67584
Symmetry number 1
Zero-point energy (ZPE) 0.05099 [Eh]   133880.456 [J/mol]
                           tot       elec      trans        rot        vib
Entropy [J/mol/K]       236.249      0.000    151.986     79.664      4.599
Cv [J/mol/K]             35.764      0.000     12.472     12.472     10.821
Cp [J/mol/K]             44.078      0.000     20.786     12.472     10.821
Internal energy [J/mol]                      3718.434   3718.434 134874.588
Internal energy [Eh]   -115.44330  -115.49750
Enthalpy [J/mol]                             6197.391   3718.434 134874.588
Enthalpy [Eh]          -115.44236
Gibbs free energy [J/mol]                  -39117.165 -20033.491 133503.518
Gibbs free energy [Eh] -115.46919
