#INFO: **** input file is /home/ericb/mmml/.venv/bin/mmml ****
#!/home/ericb/mmml/.venv/bin/python3
# -*- coding: utf-8 -*-
import sys
from mmml.cli.__main__ import main
if __name__ == "__main__":
    if sys.argv[0].endswith("-script.pyw"):
        sys.argv[0] = sys.argv[0][:-11]
    elif sys.argv[0].endswith(".exe"):
        sys.argv[0] = sys.argv[0][:-4]
    sys.exit(main())
#INFO: ******************** input file end ********************


<<<<<<< HEAD
System: uname_result(system='Linux', node='nobara-pc', release='6.19.8-200.nobara.fc43.x86_64', version='#1 SMP PREEMPT_DYNAMIC Fri Mar 13 19:08:20 UTC 2026', machine='x86_64')  Threads 24
Python 3.13.11 (main, Jan 28 2026, 00:01:45) [Clang 21.1.4 ]
numpy 2.4.3  scipy 1.17.1  h5py 3.16.0
Date: Fri Mar 20 14:41:49 2026
=======
System: uname_result(system='Linux', node='gpu08', release='5.15.0-118-generic', version='#128-Ubuntu SMP Fri Jul 5 09:28:59 UTC 2024', machine='x86_64')  Threads 32
Python 3.13.12 | packaged by conda-forge | (main, Feb  5 2026, 05:53:46) [GCC 14.3.0]
numpy 2.3.5  scipy 1.17.0  h5py 3.15.1
Date: Thu Mar 19 11:15:36 2026
>>>>>>> 3ca1dc8 (asdf)
PySCF version 2.12.1
PySCF path  /home/ericb/mmml/.venv/lib/python3.13/site-packages/pyscf/__init__.py
CUDA Environment
    CuPy 14.0.1
    CUDA Path /home/ericb/mmml/.venv/lib/python3.13/site-packages/nvidia/cu13
    CUDA Build Version 13000
    CUDA Driver Version 13000
    CUDA Runtime Version 13000
CUDA toolkit
    cuSolver (12, 1, 0)
    cuBLAS 130300
    cuTENSOR None
Device info
    Device name b'NVIDIA GeForce RTX 4060 Ti'
    Device global memory 15.57 GB
    CuPy memory fraction 0.9
    Num. Devices 1
GPU4PySCF 1.6.0
GPU4PySCF path  /home/ericb/mmml/.venv/lib/python3.13/site-packages/gpu4pyscf

[CONFIG] conf_file None
[INPUT] verbose = 6
[INPUT] max_memory = 4000 
[INPUT] num. atoms = 6
[INPUT] num. electrons = 18
[INPUT] charge = 0
[INPUT] spin (= nelec alpha-beta = 2S) = 0
[INPUT] symmetry False subgroup None
[INPUT] Mole.unit = angstrom
[INPUT] Symbol           X                Y                Z      unit          X                Y                Z       unit  Magmom
<<<<<<< HEAD
[INPUT]  1 C      0.262224170000  -0.025341540000   0.375227330000 AA    0.495531864541  -0.047888570175   0.709076888152 Bohr   0.0
[INPUT]  2 O     -0.050286480000   0.283188270000   1.730966960000 AA   -0.095027674968   0.535148271989   3.271053485071 Bohr   0.0
[INPUT]  3 H      0.511332280000   1.022167500000   2.007574150000 AA    0.966277967849   1.931616628431   3.793765318256 Bohr   0.0
[INPUT]  4 H      0.079110460000   0.857726920000  -0.279413720000 AA    0.149497102988   1.620868968467  -0.528015406246 Bohr   0.0
[INPUT]  5 H      1.328002990000  -0.335046410000   0.281332220000 AA    2.509561943704  -0.633145953919   0.531640845816 Bohr   0.0
[INPUT]  6 H     -0.381305870000  -0.861203610000   0.029110100000 AA   -0.720563663989  -1.627438960387   0.055010116459 Bohr   0.0
[INPUT] ---------------- BASIS SET ---------------- 
[INPUT] l, kappa, [nprim/nctr], expnt,             c_1 c_2 ...
[INPUT] H
[INPUT] 0    0    [3    /1   ]  13.010701         0.019682158
                                1.9622572         0.13796524
                                0.44453796        0.47831935
[INPUT] 0    0    [1    /1   ]  0.12194962           1
[INPUT] 1    0    [1    /1   ]  0.8                  1
=======
[INPUT]  1 C     -0.055107820000   2.342150760000   0.422950720000 AA   -0.104138687122   4.426023478842   0.799261024988 Bohr   0.0
[INPUT]  2 H     -0.032894240000   3.356331970000   0.046573300000 AA   -0.062161104676   6.342548206422   0.088010781717 Bohr   0.0
[INPUT]  3 C     -1.156058130000   1.894519560000   1.162720400000 AA   -2.184633249777   3.580123106032   2.197223115445 Bohr   0.0
[INPUT]  4 H     -1.984027190000   2.561798050000   1.356013110000 AA   -3.749268012790   4.841096700945   2.562493399220 Bohr   0.0
[INPUT]  5 C     -1.185178390000   0.581651600000   1.651964460000 AA   -2.239662565853   1.099162223915   3.121760396915 Bohr   0.0
[INPUT]  6 H     -2.037093100000   0.235131060000   2.220455100000 AA   -3.849548049241   0.444333306779   4.196052010894 Bohr   0.0
[INPUT]  7 C     -0.109091340000  -0.279233160000   1.402316260000 AA   -0.206152755162  -0.527674197297   2.649993671424 Bohr   0.0
[INPUT]  8 H     -0.139339510000  -1.291730150000   1.780781150000 AA   -0.263313512231  -2.441016210343   3.365188661288 Bohr   0.0
[INPUT]  9 C      1.000852260000   0.158803480000   0.660156310000 AA    1.891336662552   0.300095084828   1.247514625303 Bohr   0.0
[INPUT] 10 C      1.019910710000   1.481063840000   0.174194580000 AA    1.927351913411   2.798805030597   0.329180048584 Bohr   0.0
[INPUT] 11 H      1.868508600000   1.833647080000  -0.394696050000 AA    3.530969515394   3.465090790308  -0.745867436948 Bohr   0.0
[INPUT] 12 C      2.178817790000  -0.758376910000   0.433939690000 AA    4.117368898430  -1.433124659094   0.820027168679 Bohr   0.0
[INPUT] 13 H      3.044205840000  -0.332461090000   0.983205640000 AA    5.752715304402  -0.628260407174   1.857989383728 Bohr   0.0
[INPUT] 14 H      1.955281120000  -1.764272320000   0.849069380000 AA    3.694945813333  -3.333991493951   1.604508588954 Bohr   0.0
[INPUT] 15 C      2.567345170000  -0.926477340000  -0.973707460000 AA    4.851579238525  -1.750788433216  -1.840040424846 Bohr   0.0
[INPUT] 16 N      2.903234540000  -1.063140760000  -2.095346160000 AA    5.486318155978  -2.009044868262  -3.959630378559 Bohr   0.0
[INPUT] ---------------- BASIS SET ---------------- 
[INPUT] l, kappa, [nprim/nctr], expnt,             c_1 c_2 ...
>>>>>>> 3ca1dc8 (asdf)
[INPUT] C
[INPUT] 0    0    [5    /1   ]  1238.4016938      0.0054568832082
                                186.29004992      0.040638409211
                                42.251176346      0.18025593888
                                11.676557932      0.46315121755
                                3.5930506482      0.44087173314
[INPUT] 0    0    [1    /1   ]  0.40245147363        1
[INPUT] 0    0    [1    /1   ]  0.13090182668        1
[INPUT] 1    0    [3    /1   ]  9.4680970621      0.038387871728
                                2.0103545142      0.21117025112
                                0.54771004707     0.51328172114
[INPUT] 1    0    [1    /1   ]  0.15268613795        1
[INPUT] 2    0    [1    /1   ]  0.8                  1
<<<<<<< HEAD
[INPUT] O
[INPUT] 0    0    [5    /1   ]  2266.1767785      -0.0053431809926
                                340.87010191      -0.03989003923
                                77.363135167      -0.17853911985
                                21.47964494       -0.46427684959
                                6.6589433124      -0.44309745172
[INPUT] 0    0    [1    /1   ]  0.80975975668        1
[INPUT] 0    0    [1    /1   ]  0.25530772234        1
[INPUT] 1    0    [3    /1   ]  17.721504317      0.043394573193
                                3.863550544       0.23094120765
                                1.0480920883      0.51375311064
[INPUT] 1    0    [1    /1   ]  0.27641544411        1
[INPUT] 2    0    [1    /1   ]  1.2                  1

nuclear repulsion = 39.9730320627778
number of shells = 24
number of NR pGTOs = 76
number of NR cGTOs = 48
basis = def2-SVP
ecp = {}
CPU time:         4.88
=======
[INPUT] N
[INPUT] 0    0    [5    /1   ]  1712.8415853      -0.0053934125305
                                257.64812677      -0.040221581118
                                58.458245853      -0.1793114499
                                16.198367905      -0.46376317823
                                5.0052600809      -0.44171422662
[INPUT] 0    0    [1    /1   ]  0.58731856571        1
[INPUT] 0    0    [1    /1   ]  0.18764592253        1
[INPUT] 1    0    [3    /1   ]  13.571470233      -0.040072398852
                                2.9257372874      -0.21807045028
                                0.79927750754     -0.51294466049
[INPUT] 1    0    [1    /1   ]  0.21954348034        1
[INPUT] 2    0    [1    /1   ]  1                    1
[INPUT] H
[INPUT] 0    0    [3    /1   ]  13.010701         0.019682158
                                1.9622572         0.13796524
                                0.44453796        0.47831935
[INPUT] 0    0    [1    /1   ]  0.12194962           1
[INPUT] 1    0    [1    /1   ]  0.8                  1

nuclear repulsion = 370.678806576584
number of shells = 75
number of NR pGTOs = 265
number of NR cGTOs = 161
basis = def2-SVP
ecp = {}
CPU time:         5.23
>>>>>>> 3ca1dc8 (asdf)


******** <class 'gpu4pyscf.df.df_jk.DFRKS'> ********
method = DFRKS
initial guess = minao
damping factor = None
level_shift factor = None
DIIS = <class 'gpu4pyscf.scf.diis.CDIIS'>
diis_start_cycle = 1
diis_space = 8
diis_damp = 0
SCF conv_tol = 1e-10
SCF conv_tol_grad = None
SCF max_cycles = 50
direct_scf = False
XC library gpu4pyscf.dft.libxc version 7.0.0 (CUDA)
    unable to decode the reference due to https://github.com/NVIDIA/cuda-python/issues/29
XC functionals = PBE0
radial grids: 
Treutler-Ahlrichs [JCP 102, 346 (1995); DOI:10.1063/1.469408] (M4) radial grids

becke partition: Becke, JCP 88, 2547 (1988); DOI:10.1063/1.454033
<<<<<<< HEAD
pruning grids: <function nwchem_prune at 0x7f0b39510fe0>
grids dens level: 3
symmetrized grids: False
atomic radii adjust function: <function treutler_atomic_radii_adjust at 0x7f0b39511120>
User specified grid scheme (99, 590)
small_rho_cutoff = 1e-07
Set gradient conv threshold to 1e-05
    CPU time for generating initial guess                                1.10 sec, wall time      0.10 sec, GPU time    100.65 ms
=======
pruning grids: <function nwchem_prune at 0x14b5debc54e0>
grids dens level: 3
symmetrized grids: False
atomic radii adjust function: <function treutler_atomic_radii_adjust at 0x14b5debc5580>
User specified grid scheme (99, 590)
small_rho_cutoff = 1e-07
Set gradient conv threshold to 1e-05
    CPU time for generating initial guess                                0.49 sec, wall time      0.42 sec, GPU time    418.20 ms
>>>>>>> 3ca1dc8 (asdf)
Number of shells for each [l, nprim] group
    [0 5] : 2
    [0 3] : 4
    [0 1] : 8
    [1 3] : 2
    [1 1] : 6
    [2 1] : 2
sp_blocks = 21, ksh_blocks = 1, shm_size = 59512 B
<<<<<<< HEAD
    CPU time for processing contract_int3c2e_auxvec                      0.00 sec, wall time      0.00 sec, GPU time      2.93 ms
=======
    CPU time for processing contract_int3c2e_auxvec                      0.00 sec, wall time      0.01 sec, GPU time     10.99 ms
>>>>>>> 3ca1dc8 (asdf)
Number of shells for each [l, nprim] group
    [0 5] : 2
    [0 3] : 4
    [0 1] : 8
    [1 3] : 2
    [1 1] : 6
    [2 1] : 2
Number of shells for each [l, nprim] group
<<<<<<< HEAD
    [0 5] : 2
    [0 3] : 4
    [0 1] : 8
    [1 3] : 2
    [1 1] : 6
    [2 1] : 2
    CPU time for hcore                                                   0.17 sec, wall time      0.14 sec, GPU time    135.64 ms
=======
    [0 5] : 9
    [0 3] : 7
    [0 1] : 25
    [1 3] : 9
    [1 1] : 16
    [2 1] : 9
    CPU time for hcore                                                   0.05 sec, wall time      2.83 sec, GPU time   2832.82 ms
>>>>>>> 3ca1dc8 (asdf)
atom C rad-grids = 99, ang-grids = [ 50  50  50  50  50  50  50  50  50  50  50  50  50  50  50  50  50  50
  50  50  50  50  50  50  50  50  50  50  50  50  86  86  86  86  86  86
  86  86  86  86  86  86 434 434 434 434 434 434 434 434 434 590 590 590
 590 590 590 590 590 590 590 590 590 590 590 590 590 590 590 590 590 590
 590 590 590 590 590 434 434 434 434 434 434 434 434 434 434 434 434 434
 434 434 434 434 434 434 434 434 434]
atom O rad-grids = 99, ang-grids = [ 50  50  50  50  50  50  50  50  50  50  50  50  50  50  50  50  50  50
  50  50  50  50  50  50  50  50  50  50  50  50  86  86  86  86  86  86
  86  86  86  86  86  86  86 434 434 434 434 434 434 434 434 590 590 590
 590 590 590 590 590 590 590 590 590 590 590 590 590 590 590 590 590 590
 590 590 590 590 590 590 434 434 434 434 434 434 434 434 434 434 434 434
 434 434 434 434 434 434 434 434 434]
atom H rad-grids = 99, ang-grids = [ 50  50  50  50  50  50  50  50  50  50  50  50  50  50  50  50  50  50
  50  50  50  50  50  50  50  50  50  50  50  50  86  86  86  86  86  86
  86 434 434 434 434 434 434 434 434 434 434 590 590 590 590 590 590 590
 590 590 590 590 590 590 590 590 590 590 590 590 590 590 590 590 590 590
 590 590 434 434 434 434 434 434 434 434 434 434 434 434 434 434 434 434
 434 434 434 434 434 434 434 434 434]
<<<<<<< HEAD
    CPU time for generating atomic grids                                 0.01 sec, wall time      0.01 sec, GPU time      6.18 ms
Padding 236 grids
    CPU time for sorting grids                                           0.02 sec, wall time      0.02 sec, GPU time     16.49 ms
tot grids = 195584
Number of shells for each [l, nctr] group
    [0 1] : 8
    [0 3] : 4
    [0 5] : 2
    [1 1] : 6
    [1 3] : 2
    [2 1] : 2
0 - 195584 grids are calculated on Device 0.
mem_info: unallocated=13104.94 MB, used=9.78 MB, free=15.09 MB, free_blocks=17
13757.34784 MB memory is available on Device 0, block_size None
    CPU time for eval rho                                                0.03 sec, wall time      0.03 sec, GPU time     32.15 ms
Drop grids 21786
prune_by_density_: 26 padding grids
    CPU time for setting up grids                                        0.06 sec, wall time      0.06 sec, GPU time     59.26 ms
173824 grids on Device 0
0 - 173824 grids are calculated on Device 0.
mem_info: unallocated=13136.94 MB, used=15.52 MB, free=19.13 MB, free_blocks=20
13795.13344 MB memory is available on Device 0, block_size None
    CPU time for eval rho on Device 0                                    0.03 sec, wall time      0.03 sec, GPU time     27.08 ms
    CPU time for eval vxc on Device 0                                    0.05 sec, wall time      0.05 sec, GPU time     53.32 ms
0 - 173824 grids are calculated on Device 0.
mem_info: unallocated=13112.94 MB, used=20.24 MB, free=29.69 MB, free_blocks=22
13781.047296 MB memory is available on Device 0, block_size None
    CPU time for eval integration on 0                                   0.01 sec, wall time      0.01 sec, GPU time     16.81 ms
    CPU time for nr_rks                                                  0.10 sec, wall time      0.10 sec, GPU time     99.79 ms
nelec by numeric integration = 17.97651805474561
    CPU time for vxc                                                     0.16 sec, wall time      0.16 sec, GPU time    159.16 ms
Build CDERI ...
Psi4 predefined JKFIT basis set def2-svp-jkfit for HF
Default auxbasis def2-svp-jkfit is applied universally
num shells = 74, num cGTOs = 224
    CPU time for 2c2e                                                    0.04 sec, wall time      0.01 sec, GPU time      8.14 ms
=======
atom N rad-grids = 99, ang-grids = [ 50  50  50  50  50  50  50  50  50  50  50  50  50  50  50  50  50  50
  50  50  50  50  50  50  50  50  50  50  50  50  50  86  86  86  86  86
  86  86  86  86  86  86  86  86 434 434 434 434 434 434 434 434 434 590
 590 590 590 590 590 590 590 590 590 590 590 590 590 590 590 590 590 590
 590 590 590 590 590 590 590 434 434 434 434 434 434 434 434 434 434 434
 434 434 434 434 434 434 434 434 434]
    CPU time for generating atomic grids                                 0.00 sec, wall time      0.01 sec, GPU time      9.58 ms
Padding 36 grids
    CPU time for sorting grids                                           0.02 sec, wall time      0.02 sec, GPU time     20.27 ms
tot grids = 513792
Number of shells for each [l, nctr] group
    [0 1] : 25
    [0 3] : 7
    [0 5] : 9
    [1 1] : 16
    [1 3] : 9
    [2 1] : 9
0 - 513792 grids are calculated on Device 0.
mem_info: unallocated=31470.06 MB, used=26.34 MB, free=32.80 MB, free_blocks=18
33033.148416 MB memory is available on Device 0, block_size None
    CPU time for eval rho                                                0.04 sec, wall time      0.05 sec, GPU time     58.35 ms
Drop grids 76766
prune_by_density_: 222 padding grids
    CPU time for setting up grids                                        0.08 sec, wall time      0.10 sec, GPU time     99.37 ms
221184 grids on Device 0
0 - 221184 grids are calculated on Device 0.
mem_info: unallocated=31682.06 MB, used=32.88 MB, free=38.02 MB, free_blocks=20
33260.921344 MB memory is available on Device 0, block_size None
216064 grids on Device 1
221184 - 437248 grids are calculated on Device 1.
mem_info: unallocated=31584.06 MB, used=13.67 MB, free=0.00 MB, free_blocks=0
33118.28992 MB memory is available on Device 1, block_size None
    CPU time for eval rho on Device 0                                    0.14 sec, wall time      0.11 sec, GPU time    115.34 ms
    CPU time for eval rho on Device 1                                    0.13 sec, wall time      0.07 sec, GPU time     70.88 ms
    CPU time for eval vxc on Device 0                                    0.15 sec, wall time      0.11 sec, GPU time    105.67 ms
0 - 221184 grids are calculated on Device 0.
mem_info: unallocated=31586.06 MB, used=51.26 MB, free=49.27 MB, free_blocks=21
33172.050944 MB memory is available on Device 0, block_size None
    CPU time for eval vxc on Device 1                                    0.09 sec, wall time      0.08 sec, GPU time     78.28 ms
221184 - 437248 grids are calculated on Device 1.
mem_info: unallocated=31460.06 MB, used=31.94 MB, free=32.67 MB, free_blocks=7
33022.518272 MB memory is available on Device 1, block_size None
    CPU time for eval integration on 0                                   0.10 sec, wall time      0.10 sec, GPU time    108.61 ms
    CPU time for eval integration on 1                                   0.10 sec, wall time      0.10 sec, GPU time    110.58 ms
    CPU time for nr_rks                                                  0.42 sec, wall time      0.34 sec, GPU time    335.93 ms
nelec by numeric integration = 61.96706527807831
    CPU time for vxc                                                     0.50 sec, wall time      0.44 sec, GPU time    435.39 ms
Build CDERI ...
Psi4 predefined JKFIT basis set def2-svp-jkfit for HF
Default auxbasis def2-svp-jkfit is applied universally
num shells = 267, num cGTOs = 803
    CPU time for 2c2e                                                    0.01 sec, wall time      0.01 sec, GPU time      7.95 ms
>>>>>>> 3ca1dc8 (asdf)
Number of shells for each [l, nctr] group
    [0 1] : 8
    [0 3] : 4
    [0 5] : 2
    [1 1] : 6
    [1 3] : 2
    [2 1] : 2
Number of shells for each [l, nctr] group
    [0 1] : 22
    [0 3] : 4
    [0 5] : 2
    [1 1] : 22
    [1 3] : 2
    [2 1] : 15
    [2 2] : 1
    [2 3] : 1
    [3 1] : 2
<<<<<<< HEAD
    [3 2] : 1
    [4 1] : 2
    CPU time for Initialize q_cond                                       0.15 sec, wall time      0.01 sec, GPU time      6.94 ms
    CPU time for Get AO pairing                                          0.00 sec, wall time      0.00 sec, GPU time      0.32 ms
    CPU time for AO indices                                              0.00 sec, wall time      0.00 sec, GPU time      0.10 ms
    CPU time for Aux AO indices                                          0.00 sec, wall time      0.00 sec, GPU time      0.16 ms
    CPU time for Get AO pairs                                            0.02 sec, wall time      0.00 sec, GPU time      0.48 ms
    CPU time for prepare intopt                                          0.22 sec, wall time      0.01 sec, GPU time     10.07 ms
size of aux basis 224
Saving CDERI on GPU
CDERI size 0.002 GB on Device 0
    CPU time for Initialize GPU cache on Device 0                        0.00 sec, wall time      0.00 sec, GPU time      0.31 ms
    CPU time for solve 5 / 21 on Device 0                                0.06 sec, wall time      0.05 sec, GPU time     47.17 ms
    CPU time for transfer data for 5 / 21 on Device 0                    0.00 sec, wall time      0.00 sec, GPU time      0.44 ms
    CPU time for solve 4 / 21 on Device 0                                0.00 sec, wall time      0.00 sec, GPU time      2.34 ms
    CPU time for transfer data for 4 / 21 on Device 0                    0.00 sec, wall time      0.00 sec, GPU time      0.08 ms
    CPU time for solve 2 / 21 on Device 0                                0.00 sec, wall time      0.00 sec, GPU time      1.68 ms
    CPU time for transfer data for 2 / 21 on Device 0                    0.00 sec, wall time      0.00 sec, GPU time      0.05 ms
    CPU time for solve 12 / 21 on Device 0                               0.00 sec, wall time      0.00 sec, GPU time      2.76 ms
    CPU time for transfer data for 12 / 21 on Device 0                   0.00 sec, wall time      0.00 sec, GPU time      0.05 ms
    CPU time for solve 3 / 21 on Device 0                                0.00 sec, wall time      0.00 sec, GPU time      1.36 ms
    CPU time for transfer data for 3 / 21 on Device 0                    0.00 sec, wall time      0.00 sec, GPU time      0.06 ms
    CPU time for solve 17 / 21 on Device 0                               0.00 sec, wall time      0.00 sec, GPU time      2.37 ms
    CPU time for transfer data for 17 / 21 on Device 0                   0.00 sec, wall time      0.00 sec, GPU time      0.07 ms
    CPU time for solve 14 / 21 on Device 0                               0.00 sec, wall time      0.00 sec, GPU time      3.82 ms
    CPU time for transfer data for 14 / 21 on Device 0                   0.00 sec, wall time      0.00 sec, GPU time      0.05 ms
    CPU time for solve 11 / 21 on Device 0                               0.00 sec, wall time      0.00 sec, GPU time      2.09 ms
    CPU time for transfer data for 11 / 21 on Device 0                   0.00 sec, wall time      0.00 sec, GPU time      0.05 ms
    CPU time for solve 1 / 21 on Device 0                                0.00 sec, wall time      0.00 sec, GPU time      1.41 ms
    CPU time for transfer data for 1 / 21 on Device 0                    0.00 sec, wall time      0.00 sec, GPU time      0.05 ms
    CPU time for solve 0 / 21 on Device 0                                0.00 sec, wall time      0.00 sec, GPU time      1.45 ms
    CPU time for transfer data for 0 / 21 on Device 0                    0.00 sec, wall time      0.00 sec, GPU time      0.06 ms
    CPU time for solve 8 / 21 on Device 0                                0.00 sec, wall time      0.00 sec, GPU time      1.77 ms
    CPU time for transfer data for 8 / 21 on Device 0                    0.00 sec, wall time      0.00 sec, GPU time      0.05 ms
    CPU time for solve 16 / 21 on Device 0                               0.00 sec, wall time      0.00 sec, GPU time      1.67 ms
    CPU time for transfer data for 16 / 21 on Device 0                   0.00 sec, wall time      0.00 sec, GPU time      0.05 ms
    CPU time for solve 10 / 21 on Device 0                               0.00 sec, wall time      0.00 sec, GPU time      1.70 ms
    CPU time for transfer data for 10 / 21 on Device 0                   0.00 sec, wall time      0.00 sec, GPU time      0.05 ms
    CPU time for solve 20 / 21 on Device 0                               0.00 sec, wall time      0.00 sec, GPU time      2.96 ms
    CPU time for transfer data for 20 / 21 on Device 0                   0.00 sec, wall time      0.00 sec, GPU time      0.05 ms
    CPU time for solve 19 / 21 on Device 0                               0.00 sec, wall time      0.00 sec, GPU time      2.00 ms
    CPU time for transfer data for 19 / 21 on Device 0                   0.00 sec, wall time      0.00 sec, GPU time      0.05 ms
    CPU time for solve 7 / 21 on Device 0                                0.00 sec, wall time      0.00 sec, GPU time      1.48 ms
    CPU time for transfer data for 7 / 21 on Device 0                    0.00 sec, wall time      0.00 sec, GPU time      0.05 ms
    CPU time for solve 15 / 21 on Device 0                               0.00 sec, wall time      0.00 sec, GPU time      1.34 ms
    CPU time for transfer data for 15 / 21 on Device 0                   0.00 sec, wall time      0.00 sec, GPU time      0.05 ms
    CPU time for solve 13 / 21 on Device 0                               0.00 sec, wall time      0.00 sec, GPU time      1.64 ms
    CPU time for transfer data for 13 / 21 on Device 0                   0.00 sec, wall time      0.00 sec, GPU time      0.05 ms
    CPU time for solve 6 / 21 on Device 0                                0.00 sec, wall time      0.00 sec, GPU time      1.29 ms
    CPU time for transfer data for 6 / 21 on Device 0                    0.00 sec, wall time      0.00 sec, GPU time      0.05 ms
    CPU time for solve 9 / 21 on Device 0                                0.00 sec, wall time      0.00 sec, GPU time      1.39 ms
    CPU time for transfer data for 9 / 21 on Device 0                    0.00 sec, wall time      0.00 sec, GPU time      0.05 ms
    CPU time for solve 18 / 21 on Device 0                               0.00 sec, wall time      0.00 sec, GPU time      1.49 ms
    CPU time for transfer data for 18 / 21 on Device 0                   0.00 sec, wall time      0.00 sec, GPU time      0.05 ms
    CPU time for cholesky_eri                                            0.39 sec, wall time      0.10 sec, GPU time    100.37 ms
    CPU time for init jk                                                 0.43 sec, wall time      0.11 sec, GPU time    108.60 ms
15.037 GB memory available on Device 0, block size = 64
    CPU time for vj and vk on Device 0                                   0.01 sec, wall time      0.01 sec, GPU time      7.18 ms
    CPU time for vj and vk                                               0.01 sec, wall time      0.01 sec, GPU time      8.69 ms
    CPU time for veff                                                    0.44 sec, wall time      0.12 sec, GPU time    118.73 ms
E1 = -234.3316022957087  Ecoul = 94.01932577167219  Exc = -15.129718938826292
init E= -115.468963400085
cond(S) = 411.7600617647913
    CPU time for SCF initialization                                      1.88 sec, wall time      0.53 sec, GPU time    531.40 ms
    CPU time for DIIS                                                    0.00 sec, wall time      0.00 sec, GPU time      0.29 ms
    CPU time for eig                                                     0.00 sec, wall time      0.00 sec, GPU time      1.30 ms
  HOMO = -0.362112251872551  LUMO = 0.0147116716762862
173824 grids on Device 0
0 - 173824 grids are calculated on Device 0.
mem_info: unallocated=13098.94 MB, used=18.36 MB, free=37.57 MB, free_blocks=27
13774.629376 MB memory is available on Device 0, block_size None
    CPU time for eval rho on Device 0                                    0.01 sec, wall time      0.01 sec, GPU time     14.66 ms
    CPU time for eval vxc on Device 0                                    0.00 sec, wall time      0.00 sec, GPU time      1.47 ms
0 - 173824 grids are calculated on Device 0.
mem_info: unallocated=13090.94 MB, used=23.07 MB, free=32.86 MB, free_blocks=24
13761.298432 MB memory is available on Device 0, block_size None
    CPU time for eval integration on 0                                   0.01 sec, wall time      0.01 sec, GPU time      9.66 ms
    CPU time for nr_rks                                                  0.03 sec, wall time      0.03 sec, GPU time     27.79 ms
nelec by numeric integration = 17.999999975923558
    CPU time for vxc                                                     0.03 sec, wall time      0.03 sec, GPU time     27.87 ms
15.037 GB memory available on Device 0, block size = 64
    CPU time for vj and vk on Device 0                                   0.01 sec, wall time      0.01 sec, GPU time      6.34 ms
    CPU time for vj and vk                                               0.01 sec, wall time      0.01 sec, GPU time      7.94 ms
    CPU time for veff                                                    0.01 sec, wall time      0.01 sec, GPU time      8.46 ms
    CPU time for veff                                                    0.04 sec, wall time      0.04 sec, GPU time     37.89 ms
E1 = -238.10976515414953  Ecoul = 98.28751817745382  Exc = -15.581320469846396
    CPU time for cycle=1                                                 0.04 sec, wall time      0.04 sec, GPU time     40.72 ms
cycle= 1 E= -115.430535383764  delta_E= 0.0384  |g|= 0.595  |ddm|= 2.07
diis-c [-0.3541919  1.       ]
    CPU time for DIIS                                                    0.00 sec, wall time      0.00 sec, GPU time      1.20 ms
    CPU time for eig                                                     0.00 sec, wall time      0.00 sec, GPU time      1.26 ms
  HOMO = -0.140685742945054  LUMO = 0.0773267833235333
173824 grids on Device 0
0 - 173824 grids are calculated on Device 0.
mem_info: unallocated=13098.94 MB, used=18.38 MB, free=37.55 MB, free_blocks=25
13774.608896 MB memory is available on Device 0, block_size None
    CPU time for eval rho on Device 0                                    0.01 sec, wall time      0.01 sec, GPU time     14.31 ms
    CPU time for eval vxc on Device 0                                    0.00 sec, wall time      0.00 sec, GPU time      1.44 ms
0 - 173824 grids are calculated on Device 0.
mem_info: unallocated=13090.94 MB, used=23.09 MB, free=32.84 MB, free_blocks=24
13761.277952 MB memory is available on Device 0, block_size None
    CPU time for eval integration on 0                                   0.01 sec, wall time      0.01 sec, GPU time      9.68 ms
    CPU time for nr_rks                                                  0.03 sec, wall time      0.03 sec, GPU time     26.13 ms
nelec by numeric integration = 17.999999931777477
    CPU time for vxc                                                     0.03 sec, wall time      0.03 sec, GPU time     26.21 ms
15.036 GB memory available on Device 0, block size = 64
    CPU time for vj and vk on Device 0                                   0.00 sec, wall time      0.00 sec, GPU time      3.66 ms
    CPU time for vj and vk                                               0.00 sec, wall time      0.00 sec, GPU time      4.94 ms
    CPU time for veff                                                    0.01 sec, wall time      0.01 sec, GPU time      5.46 ms
    CPU time for veff                                                    0.03 sec, wall time      0.03 sec, GPU time     32.39 ms
E1 = -233.65457490991318  Ecoul = 93.35889139664508  Exc = -15.050240833621897
    CPU time for cycle=2                                                 0.04 sec, wall time      0.04 sec, GPU time     35.57 ms
cycle= 2 E= -115.372892284112  delta_E= 0.0576  |g|= 0.816  |ddm|= 1.06
diis-c [-0.00946459  0.57978464  0.42021536]
    CPU time for DIIS                                                    0.00 sec, wall time      0.00 sec, GPU time      0.60 ms
    CPU time for eig                                                     0.00 sec, wall time      0.00 sec, GPU time      1.24 ms
  HOMO = -0.277877611880912  LUMO = 0.0645463369335504
173824 grids on Device 0
0 - 173824 grids are calculated on Device 0.
mem_info: unallocated=13098.94 MB, used=18.40 MB, free=37.53 MB, free_blocks=26
13774.58944 MB memory is available on Device 0, block_size None
    CPU time for eval rho on Device 0                                    0.01 sec, wall time      0.01 sec, GPU time     13.17 ms
    CPU time for eval vxc on Device 0                                    0.00 sec, wall time      0.00 sec, GPU time      1.40 ms
0 - 173824 grids are calculated on Device 0.
mem_info: unallocated=13090.94 MB, used=23.11 MB, free=32.82 MB, free_blocks=24
13761.258496 MB memory is available on Device 0, block_size None
    CPU time for eval integration on 0                                   0.01 sec, wall time      0.01 sec, GPU time      9.61 ms
    CPU time for nr_rks                                                  0.02 sec, wall time      0.02 sec, GPU time     24.85 ms
nelec by numeric integration = 17.999999962581466
    CPU time for vxc                                                     0.02 sec, wall time      0.02 sec, GPU time     24.91 ms
15.036 GB memory available on Device 0, block size = 64
    CPU time for vj and vk on Device 0                                   0.00 sec, wall time      0.00 sec, GPU time      3.43 ms
    CPU time for vj and vk                                               0.00 sec, wall time      0.00 sec, GPU time      4.66 ms
    CPU time for veff                                                    0.01 sec, wall time      0.01 sec, GPU time      5.14 ms
    CPU time for veff                                                    0.03 sec, wall time      0.03 sec, GPU time     30.76 ms
E1 = -236.25084696806195  Ecoul = 96.12894552692973  Exc = -15.348285551892415
    CPU time for cycle=3                                                 0.03 sec, wall time      0.03 sec, GPU time     33.30 ms
cycle= 3 E= -115.497154930247  delta_E= -0.124  |g|= 0.0399  |ddm|= 0.643
diis-c [-5.56592796e-04  1.17860139e-01  1.02708875e-01  7.79430986e-01]
    CPU time for DIIS                                                    0.00 sec, wall time      0.00 sec, GPU time      0.68 ms
    CPU time for eig                                                     0.00 sec, wall time      0.00 sec, GPU time      1.21 ms
  HOMO = -0.277441442404079  LUMO = 0.0651967896257807
173824 grids on Device 0
0 - 173824 grids are calculated on Device 0.
mem_info: unallocated=13098.94 MB, used=18.42 MB, free=37.52 MB, free_blocks=29
13774.569984 MB memory is available on Device 0, block_size None
    CPU time for eval rho on Device 0                                    0.01 sec, wall time      0.01 sec, GPU time     13.59 ms
    CPU time for eval vxc on Device 0                                    0.00 sec, wall time      0.00 sec, GPU time      1.54 ms
0 - 173824 grids are calculated on Device 0.
mem_info: unallocated=13090.94 MB, used=23.13 MB, free=32.80 MB, free_blocks=27
13761.23904 MB memory is available on Device 0, block_size None
    CPU time for eval integration on 0                                   0.01 sec, wall time      0.01 sec, GPU time      9.75 ms
    CPU time for nr_rks                                                  0.03 sec, wall time      0.03 sec, GPU time     25.59 ms
nelec by numeric integration = 17.999999962889394
    CPU time for vxc                                                     0.03 sec, wall time      0.03 sec, GPU time     25.66 ms
15.036 GB memory available on Device 0, block size = 64
    CPU time for vj and vk on Device 0                                   0.00 sec, wall time      0.00 sec, GPU time      3.70 ms
    CPU time for vj and vk                                               0.00 sec, wall time      0.00 sec, GPU time      4.95 ms
    CPU time for veff                                                    0.01 sec, wall time      0.01 sec, GPU time      5.50 ms
    CPU time for veff                                                    0.03 sec, wall time      0.03 sec, GPU time     31.87 ms
E1 = -236.30095420570643  Ecoul = 96.18233414439665  Exc = -15.351849375139976
    CPU time for cycle=4                                                 0.03 sec, wall time      0.03 sec, GPU time     34.48 ms
cycle= 4 E= -115.497437373672  delta_E= -0.000282  |g|= 0.0164  |ddm|= 0.0378
diis-c [-4.29129759e-05  2.24356505e-02  2.21184576e-02  3.22929016e-01
  6.32516876e-01]
    CPU time for DIIS                                                    0.00 sec, wall time      0.00 sec, GPU time      0.76 ms
    CPU time for eig                                                     0.00 sec, wall time      0.00 sec, GPU time      1.22 ms
  HOMO = -0.276205793473413  LUMO = 0.0659368305273514
173824 grids on Device 0
0 - 173824 grids are calculated on Device 0.
mem_info: unallocated=13098.94 MB, used=18.43 MB, free=37.50 MB, free_blocks=28
13774.550528 MB memory is available on Device 0, block_size None
    CPU time for eval rho on Device 0                                    0.01 sec, wall time      0.01 sec, GPU time     13.47 ms
    CPU time for eval vxc on Device 0                                    0.00 sec, wall time      0.00 sec, GPU time      1.42 ms
0 - 173824 grids are calculated on Device 0.
mem_info: unallocated=13090.94 MB, used=23.15 MB, free=32.78 MB, free_blocks=28
13761.219584 MB memory is available on Device 0, block_size None
    CPU time for eval integration on 0                                   0.01 sec, wall time      0.01 sec, GPU time      9.65 ms
    CPU time for nr_rks                                                  0.03 sec, wall time      0.03 sec, GPU time     25.27 ms
nelec by numeric integration = 17.99999996276326
    CPU time for vxc                                                     0.03 sec, wall time      0.03 sec, GPU time     25.33 ms
15.036 GB memory available on Device 0, block size = 64
    CPU time for vj and vk on Device 0                                   0.00 sec, wall time      0.00 sec, GPU time      3.60 ms
    CPU time for vj and vk                                               0.00 sec, wall time      0.00 sec, GPU time      4.86 ms
    CPU time for veff                                                    0.01 sec, wall time      0.01 sec, GPU time      5.36 ms
    CPU time for veff                                                    0.03 sec, wall time      0.03 sec, GPU time     31.37 ms
E1 = -236.2433861415648  Ecoul = 96.11971992196285  Exc = -15.346867467951952
    CPU time for cycle=5                                                 0.03 sec, wall time      0.03 sec, GPU time     34.06 ms
cycle= 5 E= -115.497501624776  delta_E= -6.43e-05  |g|= 0.00378  |ddm|= 0.0159
diis-c [-6.36264763e-07 -3.68847945e-03 -2.52103908e-03  4.47254345e-02
  2.24492621e-01  7.36991463e-01]
    CPU time for DIIS                                                    0.00 sec, wall time      0.00 sec, GPU time      0.86 ms
    CPU time for eig                                                     0.00 sec, wall time      0.00 sec, GPU time      1.21 ms
  HOMO = -0.276753623728415  LUMO = 0.065671120204877
173824 grids on Device 0
0 - 173824 grids are calculated on Device 0.
mem_info: unallocated=13098.94 MB, used=18.45 MB, free=37.48 MB, free_blocks=26
13774.531072 MB memory is available on Device 0, block_size None
    CPU time for eval rho on Device 0                                    0.01 sec, wall time      0.01 sec, GPU time     13.90 ms
    CPU time for eval vxc on Device 0                                    0.00 sec, wall time      0.00 sec, GPU time      1.43 ms
0 - 173824 grids are calculated on Device 0.
mem_info: unallocated=13090.94 MB, used=23.17 MB, free=32.77 MB, free_blocks=25
13761.200128 MB memory is available on Device 0, block_size None
    CPU time for eval integration on 0                                   0.01 sec, wall time      0.01 sec, GPU time      9.00 ms
    CPU time for nr_rks                                                  0.02 sec, wall time      0.03 sec, GPU time     25.14 ms
nelec by numeric integration = 17.9999999628293
    CPU time for vxc                                                     0.03 sec, wall time      0.03 sec, GPU time     25.21 ms
15.036 GB memory available on Device 0, block size = 64
    CPU time for vj and vk on Device 0                                   0.00 sec, wall time      0.00 sec, GPU time      3.48 ms
    CPU time for vj and vk                                               0.00 sec, wall time      0.00 sec, GPU time      4.71 ms
    CPU time for veff                                                    0.01 sec, wall time      0.01 sec, GPU time      5.29 ms
    CPU time for veff                                                    0.03 sec, wall time      0.03 sec, GPU time     31.19 ms
E1 = -236.25606358287547  Ecoul = 96.13350735974  Exc = -15.347980709987178
    CPU time for cycle=6                                                 0.03 sec, wall time      0.03 sec, GPU time     34.17 ms
cycle= 6 E= -115.497504870345  delta_E= -3.25e-06  |g|= 0.000208  |ddm|= 0.003
diis-c [-1.90566528e-08 -6.06348590e-04 -5.90678871e-04  1.19360002e-03
  1.66881419e-02  8.19505402e-02  9.01364745e-01]
    CPU time for DIIS                                                    0.00 sec, wall time      0.00 sec, GPU time      1.06 ms
    CPU time for eig                                                     0.00 sec, wall time      0.00 sec, GPU time      1.17 ms
  HOMO = -0.276761047712865  LUMO = 0.0656811418457705
173824 grids on Device 0
0 - 173824 grids are calculated on Device 0.
mem_info: unallocated=13098.94 MB, used=18.47 MB, free=37.46 MB, free_blocks=27
13774.511616 MB memory is available on Device 0, block_size None
    CPU time for eval rho on Device 0                                    0.01 sec, wall time      0.01 sec, GPU time     14.03 ms
    CPU time for eval vxc on Device 0                                    0.00 sec, wall time      0.00 sec, GPU time      1.39 ms
0 - 173824 grids are calculated on Device 0.
mem_info: unallocated=13090.94 MB, used=23.18 MB, free=32.75 MB, free_blocks=26
13761.180672 MB memory is available on Device 0, block_size None
    CPU time for eval integration on 0                                   0.01 sec, wall time      0.01 sec, GPU time      9.05 ms
    CPU time for nr_rks                                                  0.03 sec, wall time      0.03 sec, GPU time     25.23 ms
nelec by numeric integration = 17.999999962850797
    CPU time for vxc                                                     0.03 sec, wall time      0.03 sec, GPU time     25.30 ms
15.036 GB memory available on Device 0, block size = 64
    CPU time for vj and vk on Device 0                                   0.00 sec, wall time      0.00 sec, GPU time      3.81 ms
    CPU time for vj and vk                                               0.01 sec, wall time      0.01 sec, GPU time      5.04 ms
    CPU time for veff                                                    0.01 sec, wall time      0.01 sec, GPU time      5.58 ms
    CPU time for veff                                                    0.03 sec, wall time      0.03 sec, GPU time     31.62 ms
E1 = -236.25602137363012  Ecoul = 96.13346719899803  Exc = -15.347982770158687
    CPU time for cycle=7                                                 0.03 sec, wall time      0.03 sec, GPU time     34.59 ms
cycle= 7 E= -115.497504882013  delta_E= -1.17e-08  |g|= 4.26e-05  |ddm|= 0.000283
diis-c [-3.51786215e-10 -1.81857161e-05 -4.52825701e-05 -9.85644313e-04
 -3.39811960e-03 -6.54277511e-03  1.69728446e-01  8.41261561e-01]
    CPU time for DIIS                                                    0.00 sec, wall time      0.00 sec, GPU time      1.03 ms
    CPU time for eig                                                     0.00 sec, wall time      0.00 sec, GPU time      1.14 ms
  HOMO = -0.276768101950622  LUMO = 0.0656760382675446
173824 grids on Device 0
0 - 173824 grids are calculated on Device 0.
mem_info: unallocated=13098.94 MB, used=18.49 MB, free=37.44 MB, free_blocks=28
13774.49216 MB memory is available on Device 0, block_size None
    CPU time for eval rho on Device 0                                    0.01 sec, wall time      0.01 sec, GPU time     14.43 ms
    CPU time for eval vxc on Device 0                                    0.00 sec, wall time      0.00 sec, GPU time      1.47 ms
0 - 173824 grids are calculated on Device 0.
mem_info: unallocated=13090.94 MB, used=23.20 MB, free=32.73 MB, free_blocks=26
13761.161216 MB memory is available on Device 0, block_size None
    CPU time for eval integration on 0                                   0.01 sec, wall time      0.01 sec, GPU time      9.01 ms
    CPU time for nr_rks                                                  0.03 sec, wall time      0.03 sec, GPU time     25.61 ms
nelec by numeric integration = 17.99999996284958
    CPU time for vxc                                                     0.03 sec, wall time      0.03 sec, GPU time     25.68 ms
15.036 GB memory available on Device 0, block size = 64
    CPU time for vj and vk on Device 0                                   0.00 sec, wall time      0.00 sec, GPU time      3.62 ms
    CPU time for vj and vk                                               0.00 sec, wall time      0.00 sec, GPU time      4.85 ms
    CPU time for veff                                                    0.01 sec, wall time      0.01 sec, GPU time      5.29 ms
    CPU time for veff                                                    0.03 sec, wall time      0.03 sec, GPU time     31.68 ms
E1 = -236.25607110031413  Ecoul = 96.13352304557827  Exc = -15.347988890586997
    CPU time for cycle=8                                                 0.03 sec, wall time      0.03 sec, GPU time     34.54 ms
cycle= 8 E= -115.497504882545  delta_E= -5.32e-10  |g|= 5.35e-06  |ddm|= 5.35e-05
diis-c [-1.19386142e-11 -5.36900781e-07  5.25969781e-07 -1.12535276e-04
 -5.23522233e-04 -1.30973123e-03  2.57806031e-03  9.33752233e-02
  9.05992516e-01]
    CPU time for DIIS                                                    0.00 sec, wall time      0.00 sec, GPU time      1.13 ms
    CPU time for eig                                                     0.00 sec, wall time      0.00 sec, GPU time      1.15 ms
  HOMO = -0.276767446702728  LUMO = 0.0656765433237024
173824 grids on Device 0
0 - 173824 grids are calculated on Device 0.
mem_info: unallocated=13098.94 MB, used=18.51 MB, free=37.42 MB, free_blocks=29
13774.472704 MB memory is available on Device 0, block_size None
    CPU time for eval rho on Device 0                                    0.01 sec, wall time      0.01 sec, GPU time     13.85 ms
    CPU time for eval vxc on Device 0                                    0.00 sec, wall time      0.00 sec, GPU time      1.36 ms
0 - 173824 grids are calculated on Device 0.
mem_info: unallocated=13090.94 MB, used=23.22 MB, free=32.71 MB, free_blocks=28
13761.14176 MB memory is available on Device 0, block_size None
    CPU time for eval integration on 0                                   0.01 sec, wall time      0.01 sec, GPU time      9.01 ms
    CPU time for nr_rks                                                  0.02 sec, wall time      0.02 sec, GPU time     24.90 ms
nelec by numeric integration = 17.999999962849706
    CPU time for vxc                                                     0.02 sec, wall time      0.02 sec, GPU time     24.96 ms
15.036 GB memory available on Device 0, block size = 64
    CPU time for vj and vk on Device 0                                   0.00 sec, wall time      0.00 sec, GPU time      3.41 ms
    CPU time for vj and vk                                               0.00 sec, wall time      0.00 sec, GPU time      4.63 ms
    CPU time for veff                                                    0.01 sec, wall time      0.01 sec, GPU time      5.11 ms
    CPU time for veff                                                    0.03 sec, wall time      0.03 sec, GPU time     30.76 ms
E1 = -236.25605967283443  Ecoul = 96.13351007430806  Exc = -15.347987346803446
    CPU time for cycle=9                                                 0.03 sec, wall time      0.03 sec, GPU time     33.75 ms
cycle= 9 E= -115.497504882552  delta_E= -6.93e-12  |g|= 1.01e-06  |ddm|= 5.7e-06
    CPU time for SCF                                                     2.20 sec, wall time      0.85 sec, GPU time    847.70 ms
converged SCF energy = -115.497504882552
=======
    [3 2] : 8
    [4 1] : 9
    CPU time for Initialize q_cond                                       0.06 sec, wall time      0.00 sec, GPU time      1.55 ms
    CPU time for Get AO pairing                                          0.00 sec, wall time      0.00 sec, GPU time      0.30 ms
    CPU time for AO indices                                              0.00 sec, wall time      0.00 sec, GPU time      0.11 ms
    CPU time for Aux AO indices                                          0.00 sec, wall time      0.00 sec, GPU time      0.24 ms
    CPU time for Get AO pairs                                            0.00 sec, wall time      0.00 sec, GPU time      0.41 ms
    CPU time for prepare intopt                                          0.15 sec, wall time      0.00 sec, GPU time      4.73 ms
size of aux basis 803
Saving CDERI on GPU
CDERI size 0.038 GB on Device 0
CDERI size 0.036 GB on Device 1
    CPU time for Initialize GPU cache on Device 1                        0.00 sec, wall time      0.00 sec, GPU time      0.50 ms
    CPU time for Initialize GPU cache on Device 0                        0.00 sec, wall time      0.00 sec, GPU time      0.79 ms
    CPU time for solve 2 / 21 on Device 1                                0.06 sec, wall time      0.06 sec, GPU time     60.96 ms
    CPU time for solve 5 / 21 on Device 0                                0.06 sec, wall time      0.06 sec, GPU time     61.46 ms
    CPU time for transfer data for 2 / 21 on Device 1                    0.00 sec, wall time      0.00 sec, GPU time      0.39 ms
    CPU time for transfer data for 5 / 21 on Device 0                    0.00 sec, wall time      0.00 sec, GPU time      0.25 ms
    CPU time for solve 1 / 21 on Device 1                                0.00 sec, wall time      0.00 sec, GPU time      2.21 ms
    CPU time for transfer data for 1 / 21 on Device 1                    0.00 sec, wall time      0.00 sec, GPU time      0.15 ms
    CPU time for solve 4 / 21 on Device 0                                0.00 sec, wall time      0.00 sec, GPU time      3.66 ms
    CPU time for transfer data for 4 / 21 on Device 0                    0.00 sec, wall time      0.00 sec, GPU time      0.18 ms
    CPU time for solve 12 / 21 on Device 1                               0.01 sec, wall time      0.00 sec, GPU time      4.77 ms
    CPU time for solve 11 / 21 on Device 0                               0.00 sec, wall time      0.00 sec, GPU time      3.64 ms
    CPU time for transfer data for 12 / 21 on Device 1                   0.00 sec, wall time      0.00 sec, GPU time      0.61 ms
    CPU time for transfer data for 11 / 21 on Device 0                   0.00 sec, wall time      0.00 sec, GPU time      0.22 ms
    CPU time for solve 3 / 21 on Device 0                                0.00 sec, wall time      0.00 sec, GPU time      2.44 ms
    CPU time for solve 16 / 21 on Device 1                               0.00 sec, wall time      0.00 sec, GPU time      2.88 ms
    CPU time for transfer data for 3 / 21 on Device 0                    0.00 sec, wall time      0.00 sec, GPU time      0.31 ms
    CPU time for transfer data for 16 / 21 on Device 1                   0.00 sec, wall time      0.00 sec, GPU time      0.17 ms
    CPU time for solve 7 / 21 on Device 1                                0.00 sec, wall time      0.00 sec, GPU time      2.65 ms
    CPU time for solve 17 / 21 on Device 0                               0.00 sec, wall time      0.00 sec, GPU time      3.70 ms
    CPU time for transfer data for 7 / 21 on Device 1                    0.00 sec, wall time      0.00 sec, GPU time      0.98 ms
    CPU time for transfer data for 17 / 21 on Device 0                   0.00 sec, wall time      0.00 sec, GPU time      0.17 ms
    CPU time for solve 0 / 21 on Device 0                                0.00 sec, wall time      0.00 sec, GPU time      1.95 ms
    CPU time for transfer data for 0 / 21 on Device 0                    0.00 sec, wall time      0.00 sec, GPU time      0.16 ms
    CPU time for solve 8 / 21 on Device 0                                0.00 sec, wall time      0.00 sec, GPU time      2.89 ms
    CPU time for solve 14 / 21 on Device 1                               0.01 sec, wall time      0.00 sec, GPU time      5.26 ms
    CPU time for transfer data for 8 / 21 on Device 0                    0.00 sec, wall time      0.00 sec, GPU time      0.20 ms
    CPU time for transfer data for 14 / 21 on Device 1                   0.00 sec, wall time      0.00 sec, GPU time      0.18 ms
    CPU time for solve 10 / 21 on Device 1                               0.00 sec, wall time      0.00 sec, GPU time      2.61 ms
    CPU time for solve 20 / 21 on Device 0                               0.00 sec, wall time      0.00 sec, GPU time      3.09 ms
    CPU time for transfer data for 10 / 21 on Device 1                   0.00 sec, wall time      0.00 sec, GPU time      0.43 ms
    CPU time for transfer data for 20 / 21 on Device 0                   0.00 sec, wall time      0.00 sec, GPU time      0.23 ms
    CPU time for solve 15 / 21 on Device 1                               0.00 sec, wall time      0.00 sec, GPU time      2.81 ms
    CPU time for solve 9 / 21 on Device 0                                0.00 sec, wall time      0.00 sec, GPU time      2.89 ms
    CPU time for transfer data for 15 / 21 on Device 1                   0.00 sec, wall time      0.00 sec, GPU time      0.35 ms
    CPU time for transfer data for 9 / 21 on Device 0                    0.00 sec, wall time      0.00 sec, GPU time      0.24 ms
    CPU time for solve 6 / 21 on Device 0                                0.00 sec, wall time      0.00 sec, GPU time      2.53 ms
    CPU time for solve 19 / 21 on Device 1                               0.00 sec, wall time      0.00 sec, GPU time      3.76 ms
    CPU time for transfer data for 6 / 21 on Device 0                    0.00 sec, wall time      0.00 sec, GPU time      1.22 ms
    CPU time for transfer data for 19 / 21 on Device 1                   0.00 sec, wall time      0.00 sec, GPU time      0.25 ms
    CPU time for solve 13 / 21 on Device 1                               0.00 sec, wall time      0.00 sec, GPU time      3.35 ms
    CPU time for solve 18 / 21 on Device 0                               0.01 sec, wall time      0.00 sec, GPU time      3.98 ms
    CPU time for transfer data for 13 / 21 on Device 1                   0.00 sec, wall time      0.00 sec, GPU time      0.64 ms
    CPU time for transfer data for 18 / 21 on Device 0                   0.00 sec, wall time      0.00 sec, GPU time      0.34 ms
    CPU time for cholesky_eri                                            0.41 sec, wall time      0.11 sec, GPU time    109.98 ms
    CPU time for init jk                                                 0.42 sec, wall time      0.12 sec, GPU time    118.07 ms
30.230 GB memory available on Device 0, block size = 256
33.080 GB memory available on Device 1, block size = 256
    CPU time for vj and vk on Device 1                                   0.02 sec, wall time      0.01 sec, GPU time     15.05 ms
    CPU time for vj and vk on Device 0                                   0.02 sec, wall time      0.01 sec, GPU time     15.89 ms
    CPU time for vj and vk                                               0.02 sec, wall time      0.02 sec, GPU time     18.83 ms
    CPU time for veff                                                    0.44 sec, wall time      0.14 sec, GPU time    140.54 ms
E1 = -1220.0905015754943  Ecoul = 537.5996322610264  Exc = -52.51112854781598
init E= -364.3231912857
cond(S) = 21137.653179371257
    CPU time for SCF initialization                                      1.51 sec, wall time      3.85 sec, GPU time   3850.27 ms
    CPU time for DIIS                                                    0.00 sec, wall time      0.00 sec, GPU time      0.24 ms
    CPU time for eig                                                     0.00 sec, wall time      0.00 sec, GPU time      3.73 ms
  HOMO = -0.295929687552773  LUMO = -0.0918826329788658
221184 grids on Device 0
216064 grids on Device 1
0 - 221184 grids are calculated on Device 0.
mem_info: unallocated=31272.06 MB, used=82.58 MB, free=286.14 MB, free_blocks=29
33091.170304 MB memory is available on Device 0, block_size None
221184 - 437248 grids are calculated on Device 1.
mem_info: unallocated=31282.06 MB, used=50.04 MB, free=248.21 MB, free_blocks=12
33061.892096 MB memory is available on Device 1, block_size None
    CPU time for eval rho on Device 0                                    0.02 sec, wall time      0.02 sec, GPU time     16.94 ms
    CPU time for eval rho on Device 1                                    0.02 sec, wall time      0.02 sec, GPU time     17.07 ms
    CPU time for eval vxc on Device 0                                    0.00 sec, wall time      0.00 sec, GPU time      1.03 ms
0 - 221184 grids are calculated on Device 0.
mem_info: unallocated=31208.06 MB, used=100.93 MB, free=267.79 MB, free_blocks=28
33004.822016 MB memory is available on Device 0, block_size None
    CPU time for eval vxc on Device 1                                    0.01 sec, wall time      0.00 sec, GPU time      0.88 ms
221184 - 437248 grids are calculated on Device 1.
mem_info: unallocated=31218.06 MB, used=68.27 MB, free=229.98 MB, free_blocks=14
32975.666688 MB memory is available on Device 1, block_size None
    CPU time for eval integration on 0                                   0.01 sec, wall time      0.01 sec, GPU time     16.52 ms
    CPU time for eval integration on 1                                   0.01 sec, wall time      0.01 sec, GPU time     18.96 ms
    CPU time for nr_rks                                                  0.06 sec, wall time      0.04 sec, GPU time     39.26 ms
nelec by numeric integration = 61.999996839069475
    CPU time for vxc                                                     0.06 sec, wall time      0.04 sec, GPU time     39.35 ms
30.229 GB memory available on Device 0, block size = 256
33.075 GB memory available on Device 1, block size = 256
    CPU time for vj and vk on Device 1                                   0.00 sec, wall time      0.00 sec, GPU time      3.25 ms
    CPU time for vj and vk on Device 0                                   0.00 sec, wall time      0.00 sec, GPU time      3.40 ms
    CPU time for vj and vk                                               0.01 sec, wall time      0.01 sec, GPU time      5.01 ms
    CPU time for veff                                                    0.01 sec, wall time      0.01 sec, GPU time      5.57 ms
    CPU time for veff                                                    0.08 sec, wall time      0.05 sec, GPU time     48.31 ms
E1 = -1224.8830387404762  Ecoul = 543.6906181668223  Exc = -52.52439316026716
    CPU time for cycle=1                                                 0.08 sec, wall time      0.06 sec, GPU time     55.37 ms
cycle= 1 E= -363.038007157337  delta_E= 1.29  |g|= 0.484  |ddm|= 4.94
diis-c [-0.23473332  1.        ]
    CPU time for DIIS                                                    0.00 sec, wall time      0.00 sec, GPU time      2.60 ms
    CPU time for eig                                                     0.00 sec, wall time      0.00 sec, GPU time      4.12 ms
  HOMO = -0.244753250269749  LUMO = -0.0046399887680687
221184 grids on Device 0
216064 grids on Device 1
0 - 221184 grids are calculated on Device 0.
mem_info: unallocated=31272.06 MB, used=82.78 MB, free=285.94 MB, free_blocks=31
33090.960384 MB memory is available on Device 0, block_size None
221184 - 437248 grids are calculated on Device 1.
mem_info: unallocated=31282.06 MB, used=50.04 MB, free=248.21 MB, free_blocks=12
33061.892096 MB memory is available on Device 1, block_size None
    CPU time for eval rho on Device 0                                    0.02 sec, wall time      0.01 sec, GPU time     14.53 ms
    CPU time for eval rho on Device 1                                    0.02 sec, wall time      0.01 sec, GPU time     15.01 ms
    CPU time for eval vxc on Device 0                                    0.01 sec, wall time      0.00 sec, GPU time      1.40 ms
0 - 221184 grids are calculated on Device 0.
mem_info: unallocated=31208.06 MB, used=101.13 MB, free=267.59 MB, free_blocks=29
33004.612096 MB memory is available on Device 0, block_size None
    CPU time for eval vxc on Device 1                                    0.01 sec, wall time      0.00 sec, GPU time      0.85 ms
221184 - 437248 grids are calculated on Device 1.
mem_info: unallocated=31218.06 MB, used=68.27 MB, free=229.98 MB, free_blocks=14
32975.666688 MB memory is available on Device 1, block_size None
    CPU time for eval integration on 0                                   0.01 sec, wall time      0.01 sec, GPU time     16.83 ms
    CPU time for eval integration on 1                                   0.01 sec, wall time      0.01 sec, GPU time     19.58 ms
    CPU time for nr_rks                                                  0.06 sec, wall time      0.04 sec, GPU time     37.31 ms
nelec by numeric integration = 61.999996305648644
    CPU time for vxc                                                     0.06 sec, wall time      0.04 sec, GPU time     37.39 ms
30.229 GB memory available on Device 0, block size = 256
33.075 GB memory available on Device 1, block size = 256
    CPU time for vj and vk on Device 1                                   0.00 sec, wall time      0.00 sec, GPU time      3.20 ms
    CPU time for vj and vk on Device 0                                   0.00 sec, wall time      0.00 sec, GPU time      3.35 ms
    CPU time for vj and vk                                               0.01 sec, wall time      0.00 sec, GPU time      4.73 ms
    CPU time for veff                                                    0.01 sec, wall time      0.01 sec, GPU time      5.26 ms
    CPU time for veff                                                    0.07 sec, wall time      0.05 sec, GPU time     43.11 ms
E1 = -1222.013073079199  Ecoul = 540.5942308146093  Exc = -52.09604731068079
    CPU time for cycle=2                                                 0.08 sec, wall time      0.05 sec, GPU time     50.45 ms
cycle= 2 E= -362.836082998687  delta_E= 0.202  |g|= 1.06  |ddm|= 1.42
diis-c [-0.02349621  0.69555796  0.30444204]
    CPU time for DIIS                                                    0.00 sec, wall time      0.00 sec, GPU time      0.45 ms
    CPU time for eig                                                     0.00 sec, wall time      0.00 sec, GPU time      4.10 ms
  HOMO = -0.258555537013927  LUMO = -0.00924325766350111
221184 grids on Device 0
216064 grids on Device 1
0 - 221184 grids are calculated on Device 0.
mem_info: unallocated=31272.06 MB, used=82.98 MB, free=285.74 MB, free_blocks=33
33090.751488 MB memory is available on Device 0, block_size None
221184 - 437248 grids are calculated on Device 1.
mem_info: unallocated=31282.06 MB, used=50.04 MB, free=248.21 MB, free_blocks=12
33061.892096 MB memory is available on Device 1, block_size None
    CPU time for eval rho on Device 0                                    0.02 sec, wall time      0.01 sec, GPU time     14.44 ms
    CPU time for eval rho on Device 1                                    0.02 sec, wall time      0.01 sec, GPU time     14.96 ms
    CPU time for eval vxc on Device 0                                    0.00 sec, wall time      0.00 sec, GPU time      1.42 ms
0 - 221184 grids are calculated on Device 0.
mem_info: unallocated=31208.06 MB, used=101.33 MB, free=267.39 MB, free_blocks=31
33004.4032 MB memory is available on Device 0, block_size None
    CPU time for eval vxc on Device 1                                    0.01 sec, wall time      0.00 sec, GPU time      0.81 ms
221184 - 437248 grids are calculated on Device 1.
mem_info: unallocated=31218.06 MB, used=68.27 MB, free=229.98 MB, free_blocks=14
32975.666688 MB memory is available on Device 1, block_size None
    CPU time for eval integration on 0                                   0.01 sec, wall time      0.01 sec, GPU time     16.42 ms
    CPU time for eval integration on 1                                   0.01 sec, wall time      0.01 sec, GPU time     18.97 ms
    CPU time for nr_rks                                                  0.06 sec, wall time      0.04 sec, GPU time     36.57 ms
nelec by numeric integration = 61.999996595781724
    CPU time for vxc                                                     0.06 sec, wall time      0.04 sec, GPU time     36.64 ms
30.229 GB memory available on Device 0, block size = 256
33.075 GB memory available on Device 1, block size = 256
    CPU time for vj and vk on Device 1                                   0.00 sec, wall time      0.00 sec, GPU time      2.93 ms
    CPU time for vj and vk on Device 0                                   0.00 sec, wall time      0.00 sec, GPU time      3.08 ms
    CPU time for vj and vk                                               0.01 sec, wall time      0.00 sec, GPU time      4.39 ms
    CPU time for veff                                                    0.01 sec, wall time      0.00 sec, GPU time      4.89 ms
    CPU time for veff                                                    0.07 sec, wall time      0.04 sec, GPU time     41.96 ms
E1 = -1221.9331508990033  Ecoul = 540.4014200043146  Exc = -52.24507317551009
    CPU time for cycle=3                                                 0.07 sec, wall time      0.05 sec, GPU time     47.07 ms
cycle= 3 E= -363.097997493615  delta_E= -0.262  |g|= 0.126  |ddm|= 0.905
diis-c [-0.00301833  0.27769324  0.14500068  0.57730608]
    CPU time for DIIS                                                    0.00 sec, wall time      0.00 sec, GPU time      0.46 ms
    CPU time for eig                                                     0.00 sec, wall time      0.00 sec, GPU time      4.11 ms
  HOMO = -0.278928453266897  LUMO = -0.0278215439547909
221184 grids on Device 0
216064 grids on Device 1
0 - 221184 grids are calculated on Device 0.
mem_info: unallocated=31272.06 MB, used=83.18 MB, free=285.54 MB, free_blocks=33
33090.542592 MB memory is available on Device 0, block_size None
221184 - 437248 grids are calculated on Device 1.
mem_info: unallocated=31282.06 MB, used=50.04 MB, free=248.21 MB, free_blocks=12
33061.892096 MB memory is available on Device 1, block_size None
    CPU time for eval rho on Device 0                                    0.03 sec, wall time      0.03 sec, GPU time     25.08 ms
    CPU time for eval vxc on Device 0                                    0.00 sec, wall time      0.00 sec, GPU time      1.03 ms
0 - 221184 grids are calculated on Device 0.
mem_info: unallocated=31208.06 MB, used=101.53 MB, free=267.19 MB, free_blocks=32
33004.194304 MB memory is available on Device 0, block_size None
    CPU time for eval rho on Device 1                                    0.04 sec, wall time      0.03 sec, GPU time     29.96 ms
    CPU time for eval vxc on Device 1                                    0.01 sec, wall time      0.00 sec, GPU time      3.32 ms
221184 - 437248 grids are calculated on Device 1.
mem_info: unallocated=31218.06 MB, used=68.27 MB, free=229.98 MB, free_blocks=14
32975.666688 MB memory is available on Device 1, block_size None
    CPU time for eval integration on 0                                   0.01 sec, wall time      0.01 sec, GPU time     15.24 ms
    CPU time for eval integration on 1                                   0.01 sec, wall time      0.01 sec, GPU time     20.41 ms
    CPU time for nr_rks                                                  0.09 sec, wall time      0.06 sec, GPU time     55.47 ms
nelec by numeric integration = 61.999996699999414
    CPU time for vxc                                                     0.09 sec, wall time      0.06 sec, GPU time     55.52 ms
30.228 GB memory available on Device 0, block size = 256
33.075 GB memory available on Device 1, block size = 256
    CPU time for vj and vk on Device 1                                   0.00 sec, wall time      0.00 sec, GPU time      3.76 ms
    CPU time for vj and vk on Device 0                                   0.00 sec, wall time      0.00 sec, GPU time      4.18 ms
    CPU time for vj and vk                                               0.01 sec, wall time      0.01 sec, GPU time      5.15 ms
    CPU time for veff                                                    0.01 sec, wall time      0.01 sec, GPU time      5.40 ms
    CPU time for veff                                                    0.10 sec, wall time      0.06 sec, GPU time     61.33 ms
E1 = -1223.187248539591  Ecoul = 541.7164982897438  Exc = -52.309954465936016
    CPU time for cycle=4                                                 0.10 sec, wall time      0.07 sec, GPU time     66.27 ms
cycle= 4 E= -363.101898139199  delta_E= -0.0039  |g|= 0.0358  |ddm|= 0.182
diis-c [-1.16417027e-04  6.11644163e-03  3.41075463e-04  2.10615405e-01
  7.82927078e-01]
    CPU time for DIIS                                                    0.00 sec, wall time      0.00 sec, GPU time      0.51 ms
    CPU time for eig                                                     0.00 sec, wall time      0.00 sec, GPU time      4.08 ms
  HOMO = -0.27517875122567  LUMO = -0.0242316024025012
221184 grids on Device 0
216064 grids on Device 1
0 - 221184 grids are calculated on Device 0.
mem_info: unallocated=31272.06 MB, used=83.38 MB, free=285.34 MB, free_blocks=32
33090.333696 MB memory is available on Device 0, block_size None
221184 - 437248 grids are calculated on Device 1.
mem_info: unallocated=31282.06 MB, used=50.04 MB, free=248.21 MB, free_blocks=12
33061.892096 MB memory is available on Device 1, block_size None
    CPU time for eval rho on Device 0                                    0.02 sec, wall time      0.01 sec, GPU time     14.21 ms
    CPU time for eval rho on Device 1                                    0.02 sec, wall time      0.01 sec, GPU time     14.96 ms
    CPU time for eval vxc on Device 0                                    0.01 sec, wall time      0.00 sec, GPU time      1.61 ms
0 - 221184 grids are calculated on Device 0.
mem_info: unallocated=31208.06 MB, used=101.73 MB, free=266.99 MB, free_blocks=30
33003.985408 MB memory is available on Device 0, block_size None
    CPU time for eval vxc on Device 1                                    0.01 sec, wall time      0.00 sec, GPU time      0.90 ms
221184 - 437248 grids are calculated on Device 1.
mem_info: unallocated=31218.06 MB, used=68.27 MB, free=229.98 MB, free_blocks=14
32975.666688 MB memory is available on Device 1, block_size None
    CPU time for eval integration on 0                                   0.01 sec, wall time      0.01 sec, GPU time     16.23 ms
    CPU time for eval integration on 1                                   0.01 sec, wall time      0.01 sec, GPU time     19.10 ms
    CPU time for nr_rks                                                  0.06 sec, wall time      0.04 sec, GPU time     36.73 ms
nelec by numeric integration = 61.999996684644046
    CPU time for vxc                                                     0.06 sec, wall time      0.04 sec, GPU time     36.80 ms
30.228 GB memory available on Device 0, block size = 256
33.075 GB memory available on Device 1, block size = 256
    CPU time for vj and vk on Device 1                                   0.00 sec, wall time      0.00 sec, GPU time      2.87 ms
    CPU time for vj and vk on Device 0                                   0.00 sec, wall time      0.00 sec, GPU time      3.07 ms
    CPU time for vj and vk                                               0.01 sec, wall time      0.00 sec, GPU time      4.43 ms
    CPU time for veff                                                    0.01 sec, wall time      0.00 sec, GPU time      4.91 ms
    CPU time for veff                                                    0.07 sec, wall time      0.04 sec, GPU time     42.12 ms
E1 = -1222.9863030612223  Ecoul = 541.5095449638159  Exc = -52.3042465118284
    CPU time for cycle=5                                                 0.07 sec, wall time      0.05 sec, GPU time     47.09 ms
cycle= 5 E= -363.102198032651  delta_E= -0.0003  |g|= 0.00869  |ddm|= 0.052
diis-c [-9.72136265e-06 -7.06990184e-03 -5.28239028e-03  7.84451891e-02
  3.53554201e-01  5.80352902e-01]
    CPU time for DIIS                                                    0.00 sec, wall time      0.00 sec, GPU time      0.55 ms
    CPU time for eig                                                     0.00 sec, wall time      0.00 sec, GPU time      4.10 ms
  HOMO = -0.275110994408851  LUMO = -0.024181471699264
221184 grids on Device 0
216064 grids on Device 1
0 - 221184 grids are calculated on Device 0.
221184 - 437248 grids are calculated on Device 1.
mem_info: unallocated=31272.06 MB, used=83.58 MB, free=285.14 MB, free_blocks=36
mem_info: unallocated=31282.06 MB, used=50.04 MB, free=248.21 MB, free_blocks=12
33090.1248 MB memory is available on Device 0, block_size None
33061.892096 MB memory is available on Device 1, block_size None
    CPU time for eval rho on Device 0                                    0.02 sec, wall time      0.01 sec, GPU time     14.42 ms
    CPU time for eval rho on Device 1                                    0.02 sec, wall time      0.01 sec, GPU time     15.01 ms
    CPU time for eval vxc on Device 0                                    0.01 sec, wall time      0.00 sec, GPU time      1.36 ms
0 - 221184 grids are calculated on Device 0.
mem_info: unallocated=31208.06 MB, used=101.93 MB, free=266.79 MB, free_blocks=34
33003.776512 MB memory is available on Device 0, block_size None
    CPU time for eval vxc on Device 1                                    0.01 sec, wall time      0.00 sec, GPU time      0.85 ms
221184 - 437248 grids are calculated on Device 1.
mem_info: unallocated=31218.06 MB, used=68.27 MB, free=229.98 MB, free_blocks=14
32975.666688 MB memory is available on Device 1, block_size None
    CPU time for eval integration on 0                                   0.01 sec, wall time      0.01 sec, GPU time     16.15 ms
    CPU time for eval integration on 1                                   0.01 sec, wall time      0.01 sec, GPU time     18.82 ms
    CPU time for nr_rks                                                  0.06 sec, wall time      0.04 sec, GPU time     36.34 ms
nelec by numeric integration = 61.999996686441655
    CPU time for vxc                                                     0.06 sec, wall time      0.04 sec, GPU time     36.41 ms
33.075 GB memory available on Device 1, block size = 256
30.228 GB memory available on Device 0, block size = 256
    CPU time for vj and vk on Device 1                                   0.00 sec, wall time      0.00 sec, GPU time      3.45 ms
    CPU time for vj and vk on Device 0                                   0.00 sec, wall time      0.00 sec, GPU time      4.37 ms
    CPU time for vj and vk                                               0.01 sec, wall time      0.01 sec, GPU time      5.64 ms
    CPU time for veff                                                    0.01 sec, wall time      0.01 sec, GPU time      5.95 ms
    CPU time for veff                                                    0.07 sec, wall time      0.05 sec, GPU time     42.77 ms
E1 = -1222.9728947269718  Ecoul = 541.4936119751721  Exc = -52.30173932489807
    CPU time for cycle=6                                                 0.07 sec, wall time      0.05 sec, GPU time     47.79 ms
cycle= 6 E= -363.102215500114  delta_E= -1.75e-05  |g|= 0.00335  |ddm|= 0.0126
diis-c [-1.02338169e-06 -4.31480586e-03 -3.00659900e-03  2.81020257e-02
  1.33684154e-01  3.25780911e-01  5.19754314e-01]
    CPU time for DIIS                                                    0.00 sec, wall time      0.00 sec, GPU time      0.58 ms
    CPU time for eig                                                     0.00 sec, wall time      0.00 sec, GPU time      4.09 ms
  HOMO = -0.275117085189366  LUMO = -0.0241534879996383
221184 grids on Device 0
216064 grids on Device 1
0 - 221184 grids are calculated on Device 0.
mem_info: unallocated=31272.06 MB, used=83.78 MB, free=284.94 MB, free_blocks=35
33089.915904 MB memory is available on Device 0, block_size None
221184 - 437248 grids are calculated on Device 1.
mem_info: unallocated=31282.06 MB, used=50.04 MB, free=248.21 MB, free_blocks=12
33061.892096 MB memory is available on Device 1, block_size None
    CPU time for eval rho on Device 0                                    0.02 sec, wall time      0.01 sec, GPU time     14.39 ms
    CPU time for eval rho on Device 1                                    0.02 sec, wall time      0.01 sec, GPU time     14.91 ms
    CPU time for eval vxc on Device 0                                    0.01 sec, wall time      0.00 sec, GPU time      1.42 ms
0 - 221184 grids are calculated on Device 0.
mem_info: unallocated=31208.06 MB, used=102.13 MB, free=266.59 MB, free_blocks=34
33003.567616 MB memory is available on Device 0, block_size None
    CPU time for eval vxc on Device 1                                    0.01 sec, wall time      0.00 sec, GPU time      0.88 ms
221184 - 437248 grids are calculated on Device 1.
mem_info: unallocated=31218.06 MB, used=68.27 MB, free=229.98 MB, free_blocks=14
32975.666688 MB memory is available on Device 1, block_size None
    CPU time for eval integration on 0                                   0.01 sec, wall time      0.01 sec, GPU time     16.36 ms
    CPU time for eval integration on 1                                   0.01 sec, wall time      0.01 sec, GPU time     19.26 ms
    CPU time for nr_rks                                                  0.06 sec, wall time      0.04 sec, GPU time     36.86 ms
nelec by numeric integration = 61.99999668630957
    CPU time for vxc                                                     0.06 sec, wall time      0.04 sec, GPU time     36.93 ms
33.075 GB memory available on Device 1, block size = 256
30.228 GB memory available on Device 0, block size = 256
    CPU time for vj and vk on Device 1                                   0.00 sec, wall time      0.00 sec, GPU time      3.67 ms
    CPU time for vj and vk on Device 0                                   0.00 sec, wall time      0.00 sec, GPU time      4.20 ms
    CPU time for vj and vk                                               0.01 sec, wall time      0.01 sec, GPU time      5.41 ms
    CPU time for veff                                                    0.01 sec, wall time      0.01 sec, GPU time      5.67 ms
    CPU time for veff                                                    0.07 sec, wall time      0.05 sec, GPU time     43.00 ms
E1 = -1222.9675055197201  Ecoul = 541.487915610498  Exc = -52.30143513800079
    CPU time for cycle=7                                                 0.07 sec, wall time      0.05 sec, GPU time     48.04 ms
cycle= 7 E= -363.102218470639  delta_E= -2.97e-06  |g|= 0.000961  |ddm|= 0.00456
diis-c [-7.93781407e-08 -1.50532650e-03 -1.07745061e-03  6.45843325e-03
  3.11439979e-02  1.08806777e-01  2.75662397e-01  5.80511171e-01]
    CPU time for DIIS                                                    0.00 sec, wall time      0.00 sec, GPU time      0.62 ms
    CPU time for eig                                                     0.00 sec, wall time      0.00 sec, GPU time      4.09 ms
  HOMO = -0.275098181984797  LUMO = -0.0241355114227873
221184 grids on Device 0
216064 grids on Device 1
0 - 221184 grids are calculated on Device 0.
mem_info: unallocated=31272.06 MB, used=83.98 MB, free=284.74 MB, free_blocks=36
33089.707008 MB memory is available on Device 0, block_size None
221184 - 437248 grids are calculated on Device 1.
mem_info: unallocated=31282.06 MB, used=50.04 MB, free=248.21 MB, free_blocks=12
33061.892096 MB memory is available on Device 1, block_size None
    CPU time for eval rho on Device 0                                    0.02 sec, wall time      0.01 sec, GPU time     14.23 ms
    CPU time for eval rho on Device 1                                    0.02 sec, wall time      0.01 sec, GPU time     14.76 ms
[...]
      12   H                 0.10 -0.07 -0.03    0.00 -0.04  0.02    0.10 -0.14  0.03
      13   H                 0.07 -0.08 -0.05   -0.05  0.01 -0.02   -0.05 -0.01 -0.02
      14   C                -0.11  0.09 -0.01    0.02 -0.02 -0.01    0.00 -0.02 -0.02
      15   N                 0.03 -0.03  0.05   -0.00  0.00 -0.02    0.01  0.00 -0.03
Mode                                12                  13                  14
Irrep
Freq [cm^-1]                      809.9920            833.1353            890.7638
Reduced mass [au]                   1.2642              3.2733              1.5915
Force const [Dyne/A]                0.4887              1.3387              0.7440
Char temp [K]                    1165.3981           1198.6963           1281.6108
Normal mode                   x     y     z       x     y     z       x     y     z
       0   C                -0.03 -0.02 -0.05   -0.01  0.09 -0.03   -0.01  0.03 -0.02
       1   H                 0.19  0.12  0.36   -0.17  0.09 -0.06   -0.04  0.06  0.06
       2   C                -0.00  0.00 -0.00    0.06 -0.02  0.03   -0.03 -0.03 -0.06
       3   H                 0.01  0.01  0.01   -0.06 -0.10 -0.17    0.18  0.10  0.35
       4   C                 0.03  0.02  0.05   -0.07 -0.02  0.05   -0.03 -0.01 -0.01
       5   H                -0.17 -0.12 -0.34   -0.19  0.03 -0.09    0.01  0.03  0.07
       6   C                 0.03  0.02  0.06   -0.04 -0.02  0.02    0.03  0.03  0.07
       7   H                -0.21 -0.15 -0.41    0.05  0.02  0.13   -0.17 -0.12 -0.33
       8   C                 0.00  0.00  0.01   -0.02 -0.03 -0.06   -0.01 -0.03 -0.04
       9   C                -0.03 -0.03 -0.06    0.01  0.07 -0.04    0.05  0.05  0.05
      10   H                 0.19  0.13  0.38    0.10  0.12  0.12   -0.16 -0.07 -0.34
      11   C                -0.01  0.00 -0.00    0.10 -0.09  0.05   -0.00 -0.08 -0.02
      12   H                -0.01 -0.01  0.00    0.12 -0.08  0.01   -0.05  0.16 -0.13
      13   H                -0.01  0.01  0.01    0.15 -0.13  0.00    0.24 -0.09  0.09
      14   C                 0.00 -0.00  0.00   -0.04  0.04 -0.02    0.01  0.04  0.01
      15   N                 0.00  0.00 -0.00    0.02 -0.01 -0.00   -0.01 -0.01  0.02
Mode                                15                  16                  17
Irrep
Freq [cm^-1]                      945.8486            958.4328            960.7802
Reduced mass [au]                   2.0637              3.3691              1.4517
Force const [Dyne/A]                1.0878              1.8234              0.7895
Char temp [K]                    1360.8656           1378.9714           1382.3488
Normal mode                   x     y     z       x     y     z       x     y     z
       0   C                -0.00  0.00  0.00   -0.01  0.01 -0.02   -0.04 -0.03 -0.07
       1   H                -0.02  0.02  0.05    0.02  0.05  0.07    0.18  0.12  0.35
       2   C                -0.00  0.00  0.03    0.01  0.01  0.02   -0.00 -0.00 -0.01
       3   H                -0.10 -0.09 -0.09   -0.05 -0.02 -0.12    0.02  0.01  0.05
       4   C                 0.03  0.00 -0.02   -0.02 -0.00  0.02    0.04  0.03  0.08
       5   H                 0.08 -0.04  0.02   -0.04  0.03  0.02   -0.20 -0.14 -0.38
       6   C                -0.00  0.01 -0.05   -0.02 -0.03 -0.02   -0.03 -0.02 -0.07
       7   H                 0.08  0.06  0.09    0.04  0.02  0.13    0.17  0.11  0.31
       8   C                 0.01  0.02  0.08    0.04  0.00  0.04   -0.00 -0.00 -0.00
       9   C                 0.00  0.00 -0.05    0.00  0.01 -0.03    0.03  0.02  0.07
      10   H                 0.07  0.06  0.10    0.03  0.06  0.04   -0.16 -0.12 -0.32
      11   C                -0.11 -0.10  0.05   -0.00 -0.02 -0.18   -0.00 -0.00  0.02
      12   H                -0.17  0.33 -0.17    0.08  0.01 -0.33   -0.01  0.01  0.02
      13   H                 0.27 -0.06  0.34    0.18 -0.06 -0.17   -0.01  0.00  0.01
      14   C                 0.05  0.06 -0.02    0.04 -0.01  0.08   -0.00  0.00 -0.01
      15   N                 0.00 -0.02 -0.04   -0.04  0.02  0.10    0.00 -0.00 -0.01
Mode                                18                  19                  20
Irrep
Freq [cm^-1]                      989.1050           1012.1708           1039.7880
Reduced mass [au]                   1.4157              5.6635              1.9824
Force const [Dyne/A]                0.8160              3.4185              1.2628
Char temp [K]                    1423.1018           1456.2884           1496.0234
Normal mode                   x     y     z       x     y     z       x     y     z
       0   C                 0.04  0.03  0.07    0.01  0.04 -0.02   -0.04 -0.09  0.05
       1   H                -0.20 -0.13 -0.37    0.06  0.03 -0.04   -0.30 -0.05  0.18
       2   C                -0.04 -0.03 -0.08    0.10 -0.08 -0.02    0.09 -0.07 -0.02
       3   H                 0.22  0.15  0.42    0.10 -0.09 -0.03    0.10 -0.08 -0.02
       4   C                 0.03  0.02  0.06   -0.03 -0.02  0.02    0.07  0.07 -0.06
       5   H                -0.17 -0.12 -0.33    0.00 -0.08  0.03   -0.05  0.34 -0.10
       6   C                -0.01 -0.01 -0.03    0.01  0.15 -0.06   -0.04  0.02  0.02
       7   H                 0.08  0.05  0.15    0.07  0.14 -0.09   -0.28  0.06  0.12
       8   C                 0.01  0.00  0.01    0.02 -0.01  0.00   -0.01  0.00 -0.00
       9   C                -0.02 -0.01 -0.04   -0.12 -0.07  0.08   -0.02  0.04  0.00
      10   H                 0.09  0.07  0.18   -0.09 -0.13  0.10   -0.14  0.26 -0.03
      11   C                -0.01 -0.01 -0.01   -0.00 -0.01 -0.01    0.01 -0.00 -0.01
      12   H                -0.00  0.02 -0.04    0.00  0.02 -0.04    0.02 -0.02 -0.01
      13   H                 0.03 -0.01  0.00    0.01  0.00  0.02    0.01 -0.01 -0.02
      14   C                 0.01  0.00  0.01    0.01  0.00  0.01   -0.00 -0.00  0.00
      15   N                -0.00  0.00  0.01   -0.00  0.00  0.01   -0.00  0.00  0.00
Mode                                21                  22                  23
Irrep
Freq [cm^-1]                     1084.3496           1146.4894           1166.5514
Reduced mass [au]                   1.3979              1.0650              1.1031
Force const [Dyne/A]                0.9684              0.8248              0.8844
Char temp [K]                    1560.1376           1649.5430           1678.4078
Normal mode                   x     y     z       x     y     z       x     y     z
       0   C                -0.01  0.05 -0.01   -0.03  0.00  0.01    0.04  0.00 -0.02
       1   H                -0.23  0.10  0.08   -0.38  0.07  0.17    0.42 -0.07 -0.19
       2   C                -0.03 -0.04  0.03    0.03  0.04 -0.03    0.01 -0.01 -0.00
       3   H                -0.19 -0.29  0.21    0.33  0.51 -0.36   -0.01 -0.04  0.02
       4   C                 0.05  0.00 -0.03    0.01 -0.03  0.00    0.01 -0.04  0.01
       5   H                 0.16 -0.22 -0.01    0.20 -0.42  0.04    0.17 -0.38  0.05
       6   C                -0.04  0.07 -0.00    0.00 -0.02  0.00   -0.04  0.00  0.02
       7   H                -0.37  0.14  0.14   -0.15  0.01  0.07   -0.45  0.08  0.21
       8   C                -0.02 -0.02  0.02   -0.00 -0.01  0.00    0.01 -0.01 -0.00
       9   C                 0.07 -0.02 -0.03   -0.01  0.00  0.01   -0.01  0.04 -0.01
      10   H                 0.25 -0.37  0.01    0.04 -0.10  0.02   -0.21  0.45 -0.05
      11   C                 0.02  0.02 -0.01   -0.00 -0.00  0.00   -0.00  0.00  0.00
      12   H                 0.01 -0.04  0.03   -0.01  0.01 -0.00    0.00  0.00 -0.00
      13   H                 0.01 -0.01 -0.10   -0.00  0.00  0.01   -0.03  0.02  0.02
      14   C                -0.00 -0.01  0.00    0.00  0.00  0.00    0.00  0.00 -0.00
      15   N                -0.00  0.00  0.00   -0.00 -0.00 -0.00    0.00 -0.00 -0.00
Mode                                24                  25                  26
Irrep
Freq [cm^-1]                     1216.8863           1226.0947           1305.7796
Reduced mass [au]                   1.2734              1.7833              1.4275
Force const [Dyne/A]                1.1110              1.5795              1.4341
Char temp [K]                    1750.8285           1764.0772           1878.7262
Normal mode                   x     y     z       x     y     z       x     y     z
       0   C                 0.02 -0.02 -0.00   -0.00  0.06 -0.02   -0.04 -0.02  0.03
       1   H                 0.04 -0.03 -0.01   -0.17  0.10  0.06    0.32 -0.09 -0.13
       2   C                 0.00 -0.01  0.00   -0.00 -0.00  0.00   -0.01 -0.02  0.01
       3   H                 0.01  0.00 -0.01   -0.01 -0.01  0.00    0.10  0.15 -0.11
       4   C                 0.02  0.02 -0.02   -0.05 -0.00  0.03    0.02 -0.04  0.00
       5   H                 0.11 -0.14  0.00   -0.12  0.13  0.02   -0.10  0.22 -0.02
       6   C                -0.00  0.03 -0.01    0.03 -0.01 -0.02    0.01 -0.01 -0.01
       7   H                 0.23 -0.01 -0.11   -0.11  0.02  0.08   -0.30  0.05  0.15
       8   C                -0.08  0.01  0.06    0.13 -0.10  0.01    0.02  0.10 -0.03
       9   C                -0.01  0.03 -0.01    0.02 -0.02 -0.01   -0.03  0.04  0.00
      10   H                -0.04  0.11 -0.01   -0.06  0.18 -0.02    0.18 -0.39  0.06
      11   C                 0.03  0.00 -0.00   -0.03  0.03 -0.03    0.05 -0.06 -0.04
      12   H                -0.24  0.12  0.33   -0.41  0.29  0.37   -0.23  0.19  0.21
      13   H                 0.41 -0.29 -0.47   -0.08  0.04 -0.04    0.00 -0.01  0.02
      14   C                -0.03 -0.05 -0.00   -0.02 -0.02 -0.01   -0.02  0.00 -0.00
      15   N                 0.00  0.01  0.00    0.00  0.00 -0.00    0.00 -0.00  0.01
Mode                                27                  28                  29
Irrep
Freq [cm^-1]                     1338.2401           1362.3540           1430.9444
Reduced mass [au]                   2.3022              3.1859              1.0915
Force const [Dyne/A]                2.4292              3.4839              1.3168
Char temp [K]                    1925.4295           1960.1241           2058.8104
Normal mode                   x     y     z       x     y     z       x     y     z
       0   C                 0.04  0.01 -0.02    0.09 -0.03 -0.03    0.00 -0.00 -0.00
       1   H                 0.07  0.00 -0.04   -0.06 -0.01  0.03   -0.02  0.00  0.01
       2   C                -0.05 -0.06  0.05   -0.03 -0.06  0.04   -0.00  0.01 -0.00
       3   H                 0.09  0.15 -0.10   -0.00 -0.02  0.01   -0.01 -0.01  0.01
       4   C                -0.03  0.03  0.01   -0.04  0.10 -0.02   -0.00 -0.00  0.00
       5   H                -0.10  0.17 -0.01    0.08 -0.15  0.01   -0.00  0.00  0.00
       6   C                 0.10 -0.01 -0.05    0.06 -0.02 -0.02    0.00 -0.00  0.00
       7   H                -0.24  0.05  0.09    0.06 -0.02 -0.02   -0.01 -0.00 -0.01
       8   C                 0.00 -0.07  0.01   -0.07 -0.05  0.06   -0.00  0.01  0.00
       9   C                -0.03  0.07 -0.01   -0.05  0.09 -0.01   -0.00 -0.01  0.00
      10   H                 0.06 -0.12  0.01    0.03 -0.06  0.01   -0.00  0.01  0.00
      11   C                -0.08  0.06  0.07    0.07 -0.04 -0.06    0.03 -0.03  0.07
      12   H                 0.19 -0.16 -0.17   -0.08  0.08  0.08    0.03  0.54 -0.39
      13   H                 0.23 -0.13 -0.22   -0.32  0.17  0.24   -0.47 -0.13 -0.47
      14   C                 0.01 -0.02  0.00   -0.00  0.01 -0.00    0.01 -0.01  0.00
      15   N                 0.00  0.00 -0.01   -0.00 -0.00  0.01   -0.00  0.00 -0.00
Mode                                30                  31                  32
Irrep
Freq [cm^-1]                     1472.9865           1516.0732           1641.0401
Reduced mass [au]                   2.5206              2.7628              6.5807
Force const [Dyne/A]                3.2222              3.7415             10.4415
Char temp [K]                    2119.2996           2181.2918           2361.0913
Normal mode                   x     y     z       x     y     z       x     y     z
       0   C                 0.07 -0.07 -0.01    0.10  0.00 -0.05   -0.04 -0.05  0.04
       1   H                -0.21 -0.03  0.12   -0.26  0.08  0.10    0.03 -0.08  0.01
       2   C                 0.04  0.07 -0.05   -0.06  0.04  0.02    0.06  0.12 -0.08
       3   H                -0.18 -0.27  0.19   -0.06  0.07  0.01   -0.09 -0.11  0.08
       4   C                -0.08  0.04  0.03    0.03 -0.10  0.02    0.00 -0.11  0.04
       5   H                 0.03 -0.20  0.06   -0.14  0.24 -0.02   -0.09  0.07  0.02
       6   C                 0.04 -0.07  0.00    0.06  0.02 -0.04    0.04  0.04 -0.04
       7   H                -0.15 -0.04  0.09   -0.21  0.09  0.08   -0.05  0.07  0.00
       8   C                 0.05  0.08 -0.06   -0.09  0.07  0.02   -0.05 -0.10  0.06
       9   C                -0.07  0.01  0.03   -0.00 -0.08  0.03   -0.01  0.10 -0.03
      10   H                -0.00 -0.15  0.06   -0.15  0.22 -0.00    0.09 -0.08 -0.01
      11   C                -0.02 -0.01  0.02    0.03 -0.02 -0.02    0.01  0.01 -0.01
      12   H                -0.02  0.00  0.02    0.01 -0.03  0.02    0.02 -0.01 -0.01
      13   H                 0.16 -0.08 -0.07    0.01  0.00  0.04   -0.07  0.03  0.03
      14   C                -0.00 -0.00  0.00   -0.00  0.00  0.00    0.00 -0.00 -0.00
      15   N                 0.00  0.00 -0.00   -0.00 -0.00  0.00   -0.00  0.00  0.00
Mode                                33                  34                  35
Irrep
Freq [cm^-1]                     1664.7942           2308.3894           3027.2740
Reduced mass [au]                   6.7347             12.3777              1.0624
Force const [Dyne/A]               10.9974             38.8604              5.7365
Char temp [K]                    2395.2682           3321.2584           4355.5733
Normal mode                   x     y     z       x     y     z       x     y     z
       0   C                -0.11  0.04  0.05   -0.00 -0.00  0.00    0.00 -0.00  0.00
       1   H                 0.11  0.00 -0.06   -0.00  0.00 -0.00   -0.00  0.00 -0.00
       2   C                 0.06 -0.01 -0.03    0.00  0.00 -0.00    0.00  0.00 -0.00
       3   H                 0.03 -0.06  0.00   -0.00  0.00  0.00   -0.00  0.00  0.00
       4   C                -0.08  0.08  0.01   -0.00  0.00  0.00   -0.00 -0.00  0.00
       5   H                 0.00 -0.10  0.04    0.00  0.00 -0.00    0.02  0.01 -0.01
       6   C                 0.13 -0.04 -0.05    0.00  0.00 -0.00    0.00  0.00 -0.00
       7   H                -0.13  0.01  0.07    0.01 -0.00 -0.00    0.00 -0.02  0.00
       8   C                -0.09  0.04  0.03    0.00 -0.00 -0.00   -0.00 -0.00  0.00
       9   C                 0.08 -0.09 -0.01   -0.00  0.00 -0.00   -0.00  0.00  0.00
      10   H                -0.02  0.12 -0.04   -0.00  0.00  0.00    0.01  0.00 -0.00
      11   C                 0.01 -0.01 -0.01    0.01 -0.00 -0.03    0.04 -0.01  0.05
      12   H                 0.02 -0.02 -0.00    0.02  0.01 -0.01   -0.65 -0.33 -0.41
      13   H                -0.01  0.01  0.02   -0.00 -0.04 -0.01    0.11  0.44 -0.18
      14   C                 0.00  0.00  0.00   -0.06  0.03  0.21   -0.00  0.00  0.01
      15   N                -0.00 -0.00  0.00    0.05 -0.02 -0.16    0.00 -0.00 -0.01
Mode                                36                  37                  38
Irrep
Freq [cm^-1]                     3068.4850           3309.6339           3318.4164
Reduced mass [au]                   1.1032              1.0872              1.0895
Force const [Dyne/A]                6.1200              7.0168              7.0690
Char temp [K]                    4414.8667           4761.8264           4774.4624
Normal mode                   x     y     z       x     y     z       x     y     z
       0   C                 0.00  0.00 -0.00    0.00  0.06 -0.02    0.00  0.01 -0.01
       1   H                 0.00 -0.00  0.00   -0.02 -0.69  0.26   -0.01 -0.15  0.06
       2   C                -0.00 -0.00  0.00    0.02 -0.02 -0.01   -0.00  0.00  0.00
       3   H                -0.00  0.00  0.00   -0.30  0.24  0.07    0.04 -0.03 -0.01
       4   C                 0.00  0.00 -0.00   -0.02 -0.01  0.01    0.02  0.01 -0.02
       5   H                -0.01 -0.01  0.01    0.19  0.08 -0.13   -0.29 -0.12  0.19
       6   C                -0.00 -0.00  0.00    0.00  0.02 -0.01   -0.00 -0.06  0.02
       7   H                -0.00  0.01 -0.00   -0.01 -0.21  0.08    0.02  0.67 -0.25
       8   C                 0.00  0.00 -0.00   -0.00  0.00  0.00    0.00  0.00 -0.00
       9   C                -0.00 -0.00 -0.00   -0.02 -0.01  0.01   -0.03 -0.01  0.02
      10   H                -0.00 -0.00  0.00    0.25  0.11 -0.17    0.38  0.16 -0.25
      11   C                 0.04  0.08 -0.01   -0.00  0.00 -0.00   -0.00 -0.00  0.00
      12   H                -0.37 -0.17 -0.24    0.00  0.00  0.00   -0.00 -0.00 -0.00
      13   H                -0.17 -0.74  0.31   -0.00 -0.01  0.00    0.00  0.02 -0.01
      14   C                 0.00 -0.00 -0.01    0.00 -0.00 -0.00   -0.00  0.00  0.00
      15   N                -0.00  0.00  0.00   -0.00  0.00  0.00    0.00 -0.00 -0.00
Mode                                39                  40                  41
Irrep
Freq [cm^-1]                     3324.4551           3337.4932           3345.3340
Reduced mass [au]                   1.0928              1.0981              1.0952
Force const [Dyne/A]                7.1157              7.2063              7.2211
Char temp [K]                    4783.1507           4801.9097           4813.1909
Normal mode                   x     y     z       x     y     z       x     y     z
       0   C                 0.00  0.01 -0.01    0.00  0.05 -0.02   -0.00  0.02 -0.00
       1   H                -0.01 -0.12  0.04   -0.01 -0.50  0.19   -0.00 -0.18  0.07
       2   C                -0.04  0.03  0.01   -0.03  0.03  0.01    0.02 -0.02 -0.00
       3   H                 0.48 -0.39 -0.11    0.38 -0.30 -0.09   -0.25  0.21  0.06
       4   C                 0.02  0.01 -0.01   -0.01 -0.01  0.01    0.05  0.02 -0.04
       5   H                -0.26 -0.10  0.17    0.10  0.04 -0.07   -0.61 -0.25  0.41
       6   C                 0.00  0.04 -0.02   -0.00 -0.02  0.01   -0.00  0.01 -0.00
       7   H                -0.01 -0.46  0.17    0.01  0.25 -0.09   -0.00 -0.15  0.05
       8   C                -0.00  0.00  0.00    0.00 -0.00  0.00   -0.00 -0.00  0.00
       9   C                -0.03 -0.01  0.02    0.04  0.01 -0.03    0.03  0.01 -0.02
      10   H                 0.30  0.13 -0.20   -0.42 -0.17  0.28   -0.29 -0.12  0.20
      11   C                -0.00  0.00 -0.00    0.00 -0.00  0.00    0.00 -0.00  0.00
      12   H                 0.00  0.00  0.00   -0.01 -0.00 -0.00   -0.01 -0.00 -0.01
      13   H                 0.00 -0.00  0.00    0.00  0.01 -0.00    0.00  0.02 -0.01
      14   C                 0.00 -0.00  0.00   -0.00  0.00  0.00   -0.00  0.00  0.00
      15   N                 0.00  0.00 -0.00    0.00 -0.00 -0.00    0.00 -0.00 -0.00
temperature 298.1500 [K]
pressure 101325.00 [Pa]
Rotational constants [GHz] 4.10207 1.01424 0.87350
Symmetry number 1
Zero-point energy (ZPE) 0.12848 [Eh]   337333.647 [J/mol]
                           tot       elec      trans        rot        vib
Entropy [J/mol/K]       352.838      0.000    168.154    120.798     63.886
Cv [J/mol/K]            117.595      0.000     12.472     12.472     92.651
Cp [J/mol/K]            125.909      0.000     20.786     12.472     92.651
Internal energy [J/mol]                      3718.434   3718.434 348839.169
Internal energy [Eh]   -362.96652  -363.10222
Enthalpy [J/mol]                             6197.391   3718.434 348839.169
Enthalpy [Eh]          -362.96558
Gibbs free energy [J/mol]                  -43937.803 -32297.415 329791.550
Gibbs free energy [Eh] -363.00564
>>>>>>> 3ca1dc8 (asdf)
