#INFO: **** input file is /mmhome/boittier/home/mmml/.venv/bin/mmml ****
#!/mmhome/boittier/home/mmml/.venv/bin/python3
# -*- coding: utf-8 -*-
import sys
from mmml.cli.__main__ import main
if __name__ == "__main__":
    if sys.argv[0].endswith("-script.pyw"):
        sys.argv[0] = sys.argv[0][:-11]
    elif sys.argv[0].endswith(".exe"):
        sys.argv[0] = sys.argv[0][:-4]
    sys.exit(main())
#INFO: ******************** input file end ********************


System: uname_result(system='Linux', node='gpu09', release='5.15.0-118-generic', version='#128-Ubuntu SMP Fri Jul 5 09:28:59 UTC 2024', machine='x86_64')  Threads 32
Python 3.13.12 | packaged by conda-forge | (main, Feb  5 2026, 05:53:46) [GCC 14.3.0]
numpy 2.4.3  scipy 1.17.1  h5py 3.16.0
Date: Tue Apr 21 14:11:03 2026
PySCF version 2.12.1
PySCF path  /mmhome/boittier/home/mmml/.venv/lib/python3.13/site-packages/pyscf/__init__.py
CUDA Environment
    CuPy 14.0.1
    CUDA Path /mmhome/boittier/home/mmml/.venv/lib/python3.13/site-packages/nvidia/cu13
    CUDA Build Version 13000
    CUDA Driver Version 13000
    CUDA Runtime Version 13000
CUDA toolkit
    cuSolver (12, 1, 0)
    cuBLAS 130300
    cuTENSOR None
Device info
    Device name b'NVIDIA GeForce RTX 5090'
    Device global memory 31.36 GB
    CuPy memory fraction 0.9
    Num. Devices 1
GPU4PySCF 1.6.1
GPU4PySCF path  /mmhome/boittier/home/mmml/.venv/lib/python3.13/site-packages/gpu4pyscf

[CONFIG] conf_file None
[INPUT] verbose = 6
[INPUT] max_memory = 4000 
[INPUT] num. atoms = 15
[INPUT] num. electrons = 40
[INPUT] charge = 0
[INPUT] spin (= nelec alpha-beta = 2S) = 0
[INPUT] symmetry False subgroup None
[INPUT] Mole.unit = Ang
[INPUT] Symbol           X                Y                Z      unit          X                Y                Z       unit  Magmom
[INPUT]  1 C      1.734320100000   1.286228790000   0.376821430000 AA    3.277390001328   2.430620146631   0.712089300567 Bohr   0.0
[INPUT]  2 H      2.543116070000   1.334046890000  -0.366838610000 AA    4.805792875280   2.520983259428  -0.693224504816 Bohr   0.0
[INPUT]  3 H      1.956585710000   2.062808990000   1.125404100000 AA    3.697411131138   3.898144038391   2.126705528463 Bohr   0.0
[INPUT]  4 C      0.491447240000   1.402295250000  -0.477075980000 AA    0.928700688273   2.649953968278  -0.901542942808 Bohr   0.0
[INPUT]  5 H      0.091840070000   0.945385370000  -1.398132790000 AA    0.173552579561   1.786519431471  -2.642088058874 Bohr   0.0
[INPUT]  6 H      0.563572840000   2.481010810000  -0.669675960000 AA    1.064998318843   4.688430942985  -1.265504156605 Bohr   0.0
[INPUT]  7 C     -0.582172120000   0.506955970000   0.254571760000 AA   -1.100145864157   0.958007940513   0.481070905449 Bohr   0.0
[INPUT]  8 H     -1.003512700000   1.317642230000   0.872726080000 AA   -1.896364165523   2.489982944861   1.649213272965 Bohr   0.0
[INPUT]  9 H     -1.424726440000   0.025518910000  -0.258645140000 AA   -2.692342774027   0.048223750897  -0.488768478050 Bohr   0.0
[INPUT] 10 C      0.371028010000  -0.719460790000   0.703916630000 AA    0.701141323442  -1.359583850463   1.330209645227 Bohr   0.0
[INPUT] 11 H     -0.292982370000  -1.357437710000   1.300669890000 AA   -0.553656438626  -2.565185503057   2.457909870568 Bohr   0.0
[INPUT] 12 H      0.996604350000  -1.393646870000   0.093505300000 AA    1.883309276050  -2.633610898657   0.176699408195 Bohr   0.0
[INPUT] 13 C      1.571640420000   0.106401350000   1.308962870000 AA    2.969969960096   0.201069410784   2.473581331525 Bohr   0.0
[INPUT] 14 H      2.633474940000  -0.172015750000   1.335361150000 AA    4.976546392505  -0.325062656612   2.523466850884 Bohr   0.0
[INPUT] 15 H      1.194246690000  -0.009856410000   2.339457830000 AA    2.256799169268  -0.018625915471   4.420934578669 Bohr   0.0
[INPUT] ---------------- BASIS SET ---------------- 
[INPUT] l, kappa, [nprim/nctr], expnt,             c_1 c_2 ...
[INPUT] H
[INPUT] 0    0    [3    /1   ]  13.010701         0.019682158
                                1.9622572         0.13796524
                                0.44453796        0.47831935
[INPUT] 0    0    [1    /1   ]  0.12194962           1
[INPUT] 1    0    [1    /1   ]  0.8                  1
[INPUT] C
[INPUT] 0    0    [5    /1   ]  1238.4016938      0.0054568832082
                                186.29004992      0.040638409211
                                42.251176346      0.18025593888
                                11.676557932      0.46315121755
                                3.5930506482      0.44087173314
[INPUT] 0    0    [1    /1   ]  0.40245147363        1
[INPUT] 0    0    [1    /1   ]  0.13090182668        1
[INPUT] 1    0    [3    /1   ]  9.4680970621      0.038387871728
                                2.0103545142      0.21117025112
                                0.54771004707     0.51328172114
[INPUT] 1    0    [1    /1   ]  0.15268613795        1
[INPUT] 2    0    [1    /1   ]  0.8                  1

nuclear repulsion = 186.635756945227
number of shells = 60
number of NR pGTOs = 190
number of NR cGTOs = 120
basis = def2-SVP
ecp = {}
CPU time:         5.36
Create scanner for <class 'gpu4pyscf.df.grad.rks.Gradients'>
Create scanner for <class 'gpu4pyscf.df.df_jk.DFRKS'>

Geometry optimization cycle 1
Cartesian coordinates (Angstrom)
 Atom        New coordinates             dX        dY        dZ
   C   1.734320   1.286229   0.376821    0.000000  0.000000  0.000000
   H   2.543116   1.334047  -0.366839    0.000000  0.000000  0.000000
   H   1.956586   2.062809   1.125404    0.000000  0.000000  0.000000
   C   0.491447   1.402295  -0.477076    0.000000  0.000000  0.000000
   H   0.091840   0.945385  -1.398133    0.000000 -0.000000  0.000000
   H   0.563573   2.481011  -0.669676    0.000000  0.000000  0.000000
   C  -0.582172   0.506956   0.254572    0.000000  0.000000  0.000000
   H  -1.003513   1.317642   0.872726    0.000000  0.000000  0.000000
   H  -1.424726   0.025519  -0.258645    0.000000  0.000000  0.000000
   C   0.371028  -0.719461   0.703917   -0.000000  0.000000  0.000000
   H  -0.292982  -1.357438   1.300670    0.000000  0.000000  0.000000
   H   0.996604  -1.393647   0.093505    0.000000  0.000000  0.000000
   C   1.571640   0.106401   1.308963    0.000000  0.000000  0.000000
   H   2.633475  -0.172016   1.335361    0.000000  0.000000  0.000000
   H   1.194247  -0.009856   2.339458    0.000000  0.000000  0.000000

WARN: Mole.unit (Ang) is changed to Bohr

New geometry
   1 C      1.734320100000   1.286228790000   0.376821430000 AA    3.277390001328   2.430620146631   0.712089300567 Bohr
   2 H      2.543116070000   1.334046890000  -0.366838610000 AA    4.805792875280   2.520983259428  -0.693224504816 Bohr
   3 H      1.956585710000   2.062808990000   1.125404100000 AA    3.697411131138   3.898144038391   2.126705528463 Bohr
   4 C      0.491447240000   1.402295250000  -0.477075980000 AA    0.928700688273   2.649953968278  -0.901542942808 Bohr
   5 H      0.091840070000   0.945385370000  -1.398132790000 AA    0.173552579561   1.786519431471  -2.642088058874 Bohr
   6 H      0.563572840000   2.481010810000  -0.669675960000 AA    1.064998318843   4.688430942985  -1.265504156605 Bohr
   7 C     -0.582172120000   0.506955970000   0.254571760000 AA   -1.100145864157   0.958007940513   0.481070905449 Bohr
   8 H     -1.003512700000   1.317642230000   0.872726080000 AA   -1.896364165523   2.489982944861   1.649213272965 Bohr
   9 H     -1.424726440000   0.025518910000  -0.258645140000 AA   -2.692342774027   0.048223750897  -0.488768478050 Bohr
  10 C      0.371028010000  -0.719460790000   0.703916630000 AA    0.701141323442  -1.359583850463   1.330209645227 Bohr
  11 H     -0.292982370000  -1.357437710000   1.300669890000 AA   -0.553656438626  -2.565185503057   2.457909870568 Bohr
  12 H      0.996604350000  -1.393646870000   0.093505300000 AA    1.883309276050  -2.633610898657   0.176699408195 Bohr
  13 C      1.571640420000   0.106401350000   1.308962870000 AA    2.969969960096   0.201069410784   2.473581331525 Bohr
  14 H      2.633474940000  -0.172015750000   1.335361150000 AA    4.976546392505  -0.325062656612   2.523466850884 Bohr
  15 H      1.194246690000  -0.009856410000   2.339457830000 AA    2.256799169268  -0.018625915471   4.420934578669 Bohr


******** <class 'pyscf.scf.hf.DFRKS_Scanner'> ********
method = DFRKS_Scanner
initial guess = minao
damping factor = None
level_shift factor = None
DIIS = <class 'gpu4pyscf.scf.diis.CDIIS'>
diis_start_cycle = 1
diis_space = 8
diis_damp = 0
SCF conv_tol = 1e-10
SCF conv_tol_grad = None
SCF max_cycles = 50
direct_scf = False
XC library gpu4pyscf.dft.libxc version 7.0.0 (CUDA)
    unable to decode the reference due to https://github.com/NVIDIA/cuda-python/issues/29
XC functionals = PBE0
radial grids: 
Treutler-Ahlrichs [JCP 102, 346 (1995); DOI:10.1063/1.469408] (M4) radial grids

becke partition: Becke, JCP 88, 2547 (1988); DOI:10.1063/1.454033
pruning grids: <function nwchem_prune at 0x1538f553d760>
grids dens level: 3
symmetrized grids: False
atomic radii adjust function: <function treutler_atomic_radii_adjust at 0x1538f553d800>
User specified grid scheme (99, 590)
small_rho_cutoff = 1e-07
Set gradient conv threshold to 1e-05
    CPU time for generating initial guess                                3.18 sec, wall time      1.01 sec, GPU time   1010.52 ms
Number of shells for each [l, nprim] group
    [0 5] : 5
    [0 3] : 10
    [0 1] : 20
    [1 3] : 5
    [1 1] : 15
    [2 1] : 5
sp_blocks = 21, ksh_blocks = 1, shm_size = 59512 B
    CPU time for processing contract_int3c2e_auxvec                      0.00 sec, wall time      0.23 sec, GPU time    229.33 ms
Number of shells for each [l, nprim] group
    [0 5] : 5
    [0 3] : 10
    [0 1] : 20
    [1 3] : 5
    [1 1] : 15
    [2 1] : 5
Number of shells for each [l, nprim] group
    [0 5] : 5
    [0 3] : 10
    [0 1] : 20
    [1 3] : 5
    [1 1] : 15
    [2 1] : 5
    CPU time for hcore                                                   0.05 sec, wall time      3.29 sec, GPU time   3285.38 ms
atom C rad-grids = 99, ang-grids = [ 50  50  50  50  50  50  50  50  50  50  50  50  50  50  50  50  50  50
  50  50  50  50  50  50  50  50  50  50  50  50  86  86  86  86  86  86
  86  86  86  86  86  86 434 434 434 434 434 434 434 434 434 590 590 590
 590 590 590 590 590 590 590 590 590 590 590 590 590 590 590 590 590 590
 590 590 590 590 590 434 434 434 434 434 434 434 434 434 434 434 434 434
 434 434 434 434 434 434 434 434 434]
atom H rad-grids = 99, ang-grids = [ 50  50  50  50  50  50  50  50  50  50  50  50  50  50  50  50  50  50
  50  50  50  50  50  50  50  50  50  50  50  50  86  86  86  86  86  86
  86 434 434 434 434 434 434 434 434 434 434 590 590 590 590 590 590 590
 590 590 590 590 590 590 590 590 590 590 590 590 590 590 590 590 590 590
 590 590 434 434 434 434 434 434 434 434 434 434 434 434 434 434 434 434
 434 434 434 434 434 434 434 434 434]
    CPU time for generating atomic grids                                 0.00 sec, wall time      0.43 sec, GPU time    436.03 ms
Padding 110 grids
    CPU time for sorting grids                                           0.02 sec, wall time      0.05 sec, GPU time     49.92 ms
tot grids = 488960
Number of shells for each [l, nctr] group
    [0 1] : 20
    [0 3] : 10
    [0 5] : 5
    [1 1] : 15
    [1 3] : 5
    [2 1] : 5
0 - 488960 grids are calculated on Device 0.
mem_info: unallocated=31470.06 MB, used=24.72 MB, free=32.11 MB, free_blocks=14
33032.421888 MB memory is available on Device 0, block_size None
    CPU time for eval rho                                                0.12 sec, wall time      0.58 sec, GPU time    577.62 ms
Drop grids 73086
prune_by_density_: 126 padding grids
    CPU time for setting up grids                                        0.15 sec, wall time      1.11 sec, GPU time   1112.09 ms
416000 grids on Device 0
0 - 416000 grids are calculated on Device 0.
mem_info: unallocated=31668.06 MB, used=37.66 MB, free=43.06 MB, free_blocks=17
33251.518464 MB memory is available on Device 0, block_size None
    CPU time for eval rho on Device 0                                    0.03 sec, wall time      0.04 sec, GPU time     44.56 ms
    CPU time for eval vxc on Device 0                                    0.11 sec, wall time      0.13 sec, GPU time    121.05 ms
0 - 416000 grids are calculated on Device 0.
mem_info: unallocated=31564.06 MB, used=49.75 MB, free=68.18 MB, free_blocks=19
33168.813568 MB memory is available on Device 0, block_size None
    CPU time for eval integration on 0                                   0.01 sec, wall time      0.01 sec, GPU time     25.63 ms
    CPU time for nr_rks                                                  0.18 sec, wall time      0.20 sec, GPU time    198.75 ms
nelec by numeric integration = 39.976656678032334
    CPU time for vxc                                                     0.32 sec, wall time      1.31 sec, GPU time   1310.95 ms
Build CDERI ...
Psi4 predefined JKFIT basis set def2-svp-jkfit for HF
Default auxbasis def2-svp-jkfit is applied universally
num shells = 185, num cGTOs = 555
    CPU time for 2c2e                                                    0.24 sec, wall time      0.02 sec, GPU time     16.25 ms
Number of shells for each [l, nctr] group
    [0 1] : 20
    [0 3] : 10
    [0 5] : 5
    [1 1] : 15
    [1 3] : 5
    [2 1] : 5
Number of shells for each [l, nctr] group
    [0 1] : 55
    [0 3] : 10
    [0 5] : 5
    [1 1] : 55
    [1 3] : 5
    [2 1] : 40
    [2 2] : 5
    [3 2] : 5
    [4 1] : 5
    CPU time for Initialize q_cond                                       0.02 sec, wall time      0.00 sec, GPU time      1.36 ms
    CPU time for Get AO pairing                                          0.00 sec, wall time      0.00 sec, GPU time      0.27 ms
    CPU time for AO indices                                              0.00 sec, wall time      0.00 sec, GPU time      0.10 ms
    CPU time for Aux AO indices                                          0.10 sec, wall time      0.00 sec, GPU time      0.19 ms
    CPU time for Get AO pairs                                            0.00 sec, wall time      0.00 sec, GPU time      0.37 ms
    CPU time for prepare intopt                                          0.13 sec, wall time      0.00 sec, GPU time      4.06 ms
size of aux basis 555
Saving CDERI on GPU
CDERI size 0.030 GB on Device 0
    CPU time for Initialize GPU cache on Device 0                        0.00 sec, wall time      0.00 sec, GPU time      0.54 ms
    CPU time for solve 5 / 21 on Device 0                                0.06 sec, wall time      0.07 sec, GPU time     67.75 ms
    CPU time for transfer data for 5 / 21 on Device 0                    0.00 sec, wall time      0.01 sec, GPU time      4.95 ms
    CPU time for solve 4 / 21 on Device 0                                0.00 sec, wall time      0.00 sec, GPU time      2.58 ms
    CPU time for transfer data for 4 / 21 on Device 0                    0.00 sec, wall time      0.00 sec, GPU time      0.03 ms
    CPU time for solve 2 / 21 on Device 0                                0.00 sec, wall time      0.00 sec, GPU time      1.95 ms
    CPU time for transfer data for 2 / 21 on Device 0                    0.00 sec, wall time      0.00 sec, GPU time      0.02 ms
    CPU time for solve 12 / 21 on Device 0                               0.00 sec, wall time      0.00 sec, GPU time      3.31 ms
    CPU time for transfer data for 12 / 21 on Device 0                   0.00 sec, wall time      0.00 sec, GPU time      0.03 ms
    CPU time for solve 3 / 21 on Device 0                                0.00 sec, wall time      0.00 sec, GPU time      1.70 ms
    CPU time for transfer data for 3 / 21 on Device 0                    0.00 sec, wall time      0.00 sec, GPU time      0.02 ms
    CPU time for solve 14 / 21 on Device 0                               0.00 sec, wall time      0.00 sec, GPU time      3.98 ms
    CPU time for transfer data for 14 / 21 on Device 0                   0.00 sec, wall time      0.00 sec, GPU time      0.03 ms
    CPU time for solve 17 / 21 on Device 0                               0.00 sec, wall time      0.00 sec, GPU time      2.42 ms
    CPU time for transfer data for 17 / 21 on Device 0                   0.00 sec, wall time      0.00 sec, GPU time      0.03 ms
    CPU time for solve 11 / 21 on Device 0                               0.00 sec, wall time      0.00 sec, GPU time      2.40 ms
    CPU time for transfer data for 11 / 21 on Device 0                   0.00 sec, wall time      0.00 sec, GPU time      0.03 ms
    CPU time for solve 1 / 21 on Device 0                                0.00 sec, wall time      0.00 sec, GPU time      1.48 ms
    CPU time for transfer data for 1 / 21 on Device 0                    0.00 sec, wall time      0.00 sec, GPU time      0.02 ms
    CPU time for solve 0 / 21 on Device 0                                0.00 sec, wall time      0.00 sec, GPU time      1.40 ms
    CPU time for transfer data for 0 / 21 on Device 0                    0.00 sec, wall time      0.00 sec, GPU time      0.02 ms
    CPU time for solve 8 / 21 on Device 0                                0.00 sec, wall time      0.00 sec, GPU time      2.09 ms
    CPU time for transfer data for 8 / 21 on Device 0                    0.00 sec, wall time      0.00 sec, GPU time      0.03 ms
    CPU time for solve 16 / 21 on Device 0                               0.00 sec, wall time      0.00 sec, GPU time      1.78 ms
    CPU time for transfer data for 16 / 21 on Device 0                   0.00 sec, wall time      0.00 sec, GPU time      0.02 ms
    CPU time for solve 10 / 21 on Device 0                               0.00 sec, wall time      0.00 sec, GPU time      1.53 ms
    CPU time for transfer data for 10 / 21 on Device 0                   0.00 sec, wall time      0.00 sec, GPU time      0.02 ms
    CPU time for solve 20 / 21 on Device 0                               0.00 sec, wall time      0.00 sec, GPU time      2.39 ms
    CPU time for transfer data for 20 / 21 on Device 0                   0.00 sec, wall time      0.00 sec, GPU time      0.03 ms
    CPU time for solve 19 / 21 on Device 0                               0.00 sec, wall time      0.00 sec, GPU time      2.89 ms
    CPU time for transfer data for 19 / 21 on Device 0                   0.00 sec, wall time      0.00 sec, GPU time      0.03 ms
    CPU time for solve 7 / 21 on Device 0                                0.00 sec, wall time      0.00 sec, GPU time      1.86 ms
    CPU time for transfer data for 7 / 21 on Device 0                    0.00 sec, wall time      0.00 sec, GPU time      0.02 ms
    CPU time for solve 15 / 21 on Device 0                               0.00 sec, wall time      0.00 sec, GPU time      1.40 ms
    CPU time for transfer data for 15 / 21 on Device 0                   0.00 sec, wall time      0.00 sec, GPU time      0.02 ms
    CPU time for solve 13 / 21 on Device 0                               0.00 sec, wall time      0.00 sec, GPU time      1.93 ms
    CPU time for transfer data for 13 / 21 on Device 0                   0.00 sec, wall time      0.00 sec, GPU time      0.02 ms
    CPU time for solve 6 / 21 on Device 0                                0.00 sec, wall time      0.00 sec, GPU time      1.40 ms
    CPU time for transfer data for 6 / 21 on Device 0                    0.00 sec, wall time      0.00 sec, GPU time      0.02 ms
    CPU time for solve 9 / 21 on Device 0                                0.00 sec, wall time      0.00 sec, GPU time      1.56 ms
    CPU time for transfer data for 9 / 21 on Device 0                    0.00 sec, wall time      0.00 sec, GPU time      0.03 ms
    CPU time for solve 18 / 21 on Device 0                               0.00 sec, wall time      0.00 sec, GPU time      1.66 ms
    CPU time for transfer data for 18 / 21 on Device 0                   0.00 sec, wall time      0.00 sec, GPU time      0.03 ms
    CPU time for cholesky_eri                                            0.34 sec, wall time      0.15 sec, GPU time    146.62 ms
    CPU time for init jk                                                 0.58 sec, wall time      0.16 sec, GPU time    162.97 ms
30.246 GB memory available on Device 0, block size = 256
    CPU time for vj and vk on Device 0                                   0.01 sec, wall time      0.23 sec, GPU time    230.00 ms
    CPU time for vj and vk                                               0.01 sec, wall time      0.24 sec, GPU time    236.57 ms
    CPU time for veff                                                    0.59 sec, wall time      0.42 sec, GPU time    417.59 ms
E1 = -628.8691443819066  Ecoul = 276.2924372156359  Exc = -30.53580317316693
init E= -196.476753394211
cond(S) = 5798.795244734589
    CPU time for SCF initialization                                      4.17 sec, wall time      6.06 sec, GPU time   6056.45 ms
    CPU time for DIIS                                                    0.00 sec, wall time      0.00 sec, GPU time      3.40 ms
    CPU time for eig                                                     0.00 sec, wall time      0.00 sec, GPU time      3.86 ms
  HOMO = -0.277860019587693  LUMO = 0.00592011202952297
416000 grids on Device 0
0 - 416000 grids are calculated on Device 0.
mem_info: unallocated=31358.06 MB, used=73.44 MB, free=202.71 MB, free_blocks=27
33093.873664 MB memory is available on Device 0, block_size None
    CPU time for eval rho on Device 0                                    0.01 sec, wall time      0.02 sec, GPU time     30.61 ms
    CPU time for eval vxc on Device 0                                    0.01 sec, wall time      0.01 sec, GPU time      0.83 ms
0 - 416000 grids are calculated on Device 0.
mem_info: unallocated=31294.06 MB, used=85.51 MB, free=190.64 MB, free_blocks=26
33014.106624 MB memory is available on Device 0, block_size None
    CPU time for eval integration on 0                                   0.01 sec, wall time      0.01 sec, GPU time     19.93 ms
    CPU time for nr_rks                                                  0.04 sec, wall time      0.05 sec, GPU time     53.02 ms
nelec by numeric integration = 40.000003307823334
    CPU time for vxc                                                     0.04 sec, wall time      0.05 sec, GPU time     53.10 ms
30.245 GB memory available on Device 0, block size = 256
    CPU time for vj and vk on Device 0                                   0.00 sec, wall time      0.00 sec, GPU time      1.87 ms
    CPU time for vj and vk                                               0.00 sec, wall time      0.01 sec, GPU time      5.98 ms
    CPU time for veff                                                    0.00 sec, wall time      0.01 sec, GPU time      6.32 ms
    CPU time for veff                                                    0.05 sec, wall time      0.08 sec, GPU time     75.92 ms
E1 = -634.4433800437702  Ecoul = 282.55707591284363  Exc = -30.74397242416539
    CPU time for cycle=1                                                 0.05 sec, wall time      0.09 sec, GPU time     93.27 ms
cycle= 1 E= -195.994519609865  delta_E= 0.482  |g|= 0.314  |ddm|= 3.62
diis-c [-0.09839466  1.        ]
    CPU time for DIIS                                                    0.00 sec, wall time      0.01 sec, GPU time     10.56 ms
    CPU time for eig                                                     0.00 sec, wall time      0.00 sec, GPU time      4.37 ms
  HOMO = -0.192023769474809  LUMO = 0.0851573703280632
416000 grids on Device 0
0 - 416000 grids are calculated on Device 0.
mem_info: unallocated=31358.06 MB, used=73.55 MB, free=202.60 MB, free_blocks=28
33093.755904 MB memory is available on Device 0, block_size None
    CPU time for eval rho on Device 0                                    0.01 sec, wall time      0.01 sec, GPU time     19.27 ms
    CPU time for eval vxc on Device 0                                    0.01 sec, wall time      0.01 sec, GPU time      0.76 ms
0 - 416000 grids are calculated on Device 0.
mem_info: unallocated=31294.06 MB, used=85.62 MB, free=190.53 MB, free_blocks=26
33013.988864 MB memory is available on Device 0, block_size None
    CPU time for eval integration on 0                                   0.01 sec, wall time      0.01 sec, GPU time     19.92 ms
    CPU time for nr_rks                                                  0.04 sec, wall time      0.04 sec, GPU time     41.14 ms
nelec by numeric integration = 40.00000381483693
    CPU time for vxc                                                     0.04 sec, wall time      0.04 sec, GPU time     41.21 ms
30.245 GB memory available on Device 0, block size = 256
    CPU time for vj and vk on Device 0                                   0.00 sec, wall time      0.00 sec, GPU time      1.81 ms
    CPU time for vj and vk                                               0.00 sec, wall time      0.00 sec, GPU time      2.77 ms
    CPU time for veff                                                    0.00 sec, wall time      0.00 sec, GPU time      3.28 ms
    CPU time for veff                                                    0.05 sec, wall time      0.05 sec, GPU time     44.92 ms
E1 = -628.901035855441  Ecoul = 276.6326510690286  Exc = -30.352171933549755
    CPU time for cycle=2                                                 0.05 sec, wall time      0.06 sec, GPU time     60.24 ms
cycle= 2 E= -195.984799774736  delta_E= 0.00972  |g|= 0.385  |ddm|= 0.821
diis-c [-0.00543225  0.55349508  0.44650492]
    CPU time for DIIS                                                    0.00 sec, wall time      0.00 sec, GPU time      0.39 ms
    CPU time for eig                                                     0.00 sec, wall time      0.00 sec, GPU time      4.17 ms
  HOMO = -0.241591423303627  LUMO = 0.0682343304266843
416000 grids on Device 0
0 - 416000 grids are calculated on Device 0.
mem_info: unallocated=31358.06 MB, used=73.66 MB, free=202.49 MB, free_blocks=29
33093.639168 MB memory is available on Device 0, block_size None
    CPU time for eval rho on Device 0                                    0.01 sec, wall time      0.01 sec, GPU time     18.97 ms
    CPU time for eval vxc on Device 0                                    0.01 sec, wall time      0.01 sec, GPU time      0.75 ms
0 - 416000 grids are calculated on Device 0.
mem_info: unallocated=31294.06 MB, used=85.73 MB, free=190.42 MB, free_blocks=27
33013.872128 MB memory is available on Device 0, block_size None
    CPU time for eval integration on 0                                   0.01 sec, wall time      0.01 sec, GPU time     20.02 ms
    CPU time for nr_rks                                                  0.04 sec, wall time      0.04 sec, GPU time     40.84 ms
nelec by numeric integration = 40.0000036228329
    CPU time for vxc                                                     0.04 sec, wall time      0.04 sec, GPU time     40.88 ms
30.245 GB memory available on Device 0, block size = 256
    CPU time for vj and vk on Device 0                                   0.00 sec, wall time      0.00 sec, GPU time      1.78 ms
    CPU time for vj and vk                                               0.00 sec, wall time      0.00 sec, GPU time      2.40 ms
    CPU time for veff                                                    0.00 sec, wall time      0.00 sec, GPU time      2.84 ms
    CPU time for veff                                                    0.05 sec, wall time      0.05 sec, GPU time     44.14 ms
E1 = -632.0191821537808  Ecoul = 279.91416598162004  Exc = -30.554867547367465
    CPU time for cycle=3                                                 0.05 sec, wall time      0.05 sec, GPU time     49.40 ms
cycle= 3 E= -196.024126774302  delta_E= -0.0393  |g|= 0.0266  |ddm|= 0.439
diis-c [-2.86403605e-04  9.50093262e-02  1.00085042e-01  8.04905632e-01]
    CPU time for DIIS                                                    0.00 sec, wall time      0.00 sec, GPU time      0.53 ms
    CPU time for eig                                                     0.00 sec, wall time      0.00 sec, GPU time      4.16 ms
  HOMO = -0.242605033277538  LUMO = 0.067465830875493
416000 grids on Device 0
0 - 416000 grids are calculated on Device 0.
mem_info: unallocated=31358.06 MB, used=73.77 MB, free=202.38 MB, free_blocks=29
33093.522432 MB memory is available on Device 0, block_size None
    CPU time for eval rho on Device 0                                    0.01 sec, wall time      0.01 sec, GPU time     19.01 ms
    CPU time for eval vxc on Device 0                                    0.01 sec, wall time      0.01 sec, GPU time      0.74 ms
0 - 416000 grids are calculated on Device 0.
mem_info: unallocated=31294.06 MB, used=85.85 MB, free=190.31 MB, free_blocks=27
33013.755392 MB memory is available on Device 0, block_size None
    CPU time for eval integration on 0                                   0.01 sec, wall time      0.01 sec, GPU time     20.09 ms
    CPU time for nr_rks                                                  0.04 sec, wall time      0.04 sec, GPU time     40.95 ms
nelec by numeric integration = 40.0000035550473
    CPU time for vxc                                                     0.04 sec, wall time      0.04 sec, GPU time     41.02 ms
30.245 GB memory available on Device 0, block size = 256
    CPU time for vj and vk on Device 0                                   0.00 sec, wall time      0.00 sec, GPU time      1.81 ms
    CPU time for vj and vk                                               0.00 sec, wall time      0.00 sec, GPU time      2.60 ms
    CPU time for veff                                                    0.00 sec, wall time      0.00 sec, GPU time      2.87 ms
    CPU time for veff                                                    0.05 sec, wall time      0.05 sec, GPU time     44.28 ms
E1 = -631.9581706230914  Ecoul = 279.8546467896315  Exc = -30.55651415327204
    CPU time for cycle=4                                                 0.05 sec, wall time      0.05 sec, GPU time     49.32 ms
cycle= 4 E= -196.024281041505  delta_E= -0.000154  |g|= 0.00613  |ddm|= 0.0368
diis-c [-9.17762222e-06 -6.89185389e-03 -1.21700008e-03  1.70502334e-01
  8.37606520e-01]
    CPU time for DIIS                                                    0.00 sec, wall time      0.00 sec, GPU time      0.46 ms
    CPU time for eig                                                     0.00 sec, wall time      0.00 sec, GPU time      4.17 ms
  HOMO = -0.242683941343206  LUMO = 0.0675532939531967
416000 grids on Device 0
0 - 416000 grids are calculated on Device 0.
mem_info: unallocated=31358.06 MB, used=73.89 MB, free=202.27 MB, free_blocks=29
33093.405696 MB memory is available on Device 0, block_size None
    CPU time for eval rho on Device 0                                    0.01 sec, wall time      0.01 sec, GPU time     19.52 ms
    CPU time for eval vxc on Device 0                                    0.01 sec, wall time      0.01 sec, GPU time      0.75 ms
0 - 416000 grids are calculated on Device 0.
mem_info: unallocated=31294.06 MB, used=85.96 MB, free=190.20 MB, free_blocks=27
33013.638656 MB memory is available on Device 0, block_size None
    CPU time for eval integration on 0                                   0.01 sec, wall time      0.01 sec, GPU time     20.00 ms
    CPU time for nr_rks                                                  0.04 sec, wall time      0.05 sec, GPU time     53.66 ms
nelec by numeric integration = 40.0000035748628
    CPU time for vxc                                                     0.04 sec, wall time      0.05 sec, GPU time     53.72 ms
30.245 GB memory available on Device 0, block size = 256
    CPU time for vj and vk on Device 0                                   0.00 sec, wall time      0.00 sec, GPU time      1.79 ms
    CPU time for vj and vk                                               0.00 sec, wall time      0.00 sec, GPU time      2.71 ms
    CPU time for veff                                                    0.00 sec, wall time      0.00 sec, GPU time      3.21 ms
    CPU time for veff                                                    0.05 sec, wall time      0.06 sec, GPU time     57.35 ms
E1 = -631.9487273619236  Ecoul = 279.8435505819588  Exc = -30.554867796346315
    CPU time for cycle=5                                                 0.05 sec, wall time      0.06 sec, GPU time     62.37 ms
cycle= 5 E= -196.024287631084  delta_E= -6.59e-06  |g|= 0.00357  |ddm|= 0.0118
diis-c [-3.90259606e-07 -7.07790668e-03 -3.80831494e-03  6.98387320e-02
  4.69543888e-01  4.71503601e-01]
    CPU time for DIIS                                                    0.00 sec, wall time      0.00 sec, GPU time      0.50 ms
    CPU time for eig                                                     0.00 sec, wall time      0.00 sec, GPU time      4.17 ms
  HOMO = -0.242628166388268  LUMO = 0.0675361557716077
416000 grids on Device 0
0 - 416000 grids are calculated on Device 0.
mem_info: unallocated=31358.06 MB, used=74.00 MB, free=202.16 MB, free_blocks=31
33093.28896 MB memory is available on Device 0, block_size None
    CPU time for eval rho on Device 0                                    0.01 sec, wall time      0.01 sec, GPU time     19.35 ms
    CPU time for eval vxc on Device 0                                    0.01 sec, wall time      0.01 sec, GPU time      0.74 ms
0 - 416000 grids are calculated on Device 0.
mem_info: unallocated=31294.06 MB, used=86.07 MB, free=190.09 MB, free_blocks=30
33013.52192 MB memory is available on Device 0, block_size None
    CPU time for eval integration on 0                                   0.01 sec, wall time      0.01 sec, GPU time     19.99 ms
    CPU time for nr_rks                                                  0.04 sec, wall time      0.04 sec, GPU time     41.24 ms
nelec by numeric integration = 40.000003571135004
    CPU time for vxc                                                     0.04 sec, wall time      0.04 sec, GPU time     41.30 ms
30.245 GB memory available on Device 0, block size = 256
    CPU time for vj and vk on Device 0                                   0.00 sec, wall time      0.00 sec, GPU time      1.80 ms
    CPU time for vj and vk                                               0.00 sec, wall time      0.00 sec, GPU time      2.75 ms
    CPU time for veff                                                    0.00 sec, wall time      0.00 sec, GPU time      3.25 ms
    CPU time for veff                                                    0.05 sec, wall time      0.05 sec, GPU time     44.96 ms
E1 = -631.9533555708138  Ecoul = 279.84841594318533  Exc = -30.555108306371725
    CPU time for cycle=6                                                 0.05 sec, wall time      0.05 sec, GPU time     50.04 ms
cycle= 6 E= -196.024290988774  delta_E= -3.36e-06  |g|= 0.000224  |ddm|= 0.00415
diis-c [-7.17960280e-09 -5.40223082e-04 -2.26389075e-04  1.88768456e-04
  2.09601127e-02  6.75076107e-02  9.12110120e-01]
    CPU time for DIIS                                                    0.00 sec, wall time      0.00 sec, GPU time      0.53 ms
    CPU time for eig                                                     0.00 sec, wall time      0.00 sec, GPU time      4.17 ms
  HOMO = -0.242614466311727  LUMO = 0.0675442923403995
416000 grids on Device 0
0 - 416000 grids are calculated on Device 0.
mem_info: unallocated=31358.06 MB, used=74.11 MB, free=202.05 MB, free_blocks=31
33093.172224 MB memory is available on Device 0, block_size None
    CPU time for eval rho on Device 0                                    0.01 sec, wall time      0.01 sec, GPU time     19.35 ms
    CPU time for eval vxc on Device 0                                    0.01 sec, wall time      0.01 sec, GPU time      0.74 ms
0 - 416000 grids are calculated on Device 0.
mem_info: unallocated=31294.06 MB, used=86.18 MB, free=189.97 MB, free_blocks=29
33013.405184 MB memory is available on Device 0, block_size None
    CPU time for eval integration on 0                                   0.01 sec, wall time      0.01 sec, GPU time     20.01 ms
    CPU time for nr_rks                                                  0.04 sec, wall time      0.04 sec, GPU time     41.26 ms
nelec by numeric integration = 40.000003571228206
    CPU time for vxc                                                     0.04 sec, wall time      0.04 sec, GPU time     41.32 ms
30.245 GB memory available on Device 0, block size = 256
    CPU time for vj and vk on Device 0                                   0.00 sec, wall time      0.00 sec, GPU time      1.81 ms
    CPU time for vj and vk                                               0.00 sec, wall time      0.00 sec, GPU time      2.77 ms
    CPU time for veff                                                    0.00 sec, wall time      0.00 sec, GPU time      3.28 ms
    CPU time for veff                                                    0.05 sec, wall time      0.05 sec, GPU time     45.01 ms
E1 = -631.9524989029107  Ecoul = 279.84751358864315  Exc = -30.555062633225866
    CPU time for cycle=7                                                 0.05 sec, wall time      0.05 sec, GPU time     50.08 ms
cycle= 7 E= -196.024291002267  delta_E= -1.35e-08  |g|= 4.7e-05  |ddm|= 0.000359
diis-c [-5.90191114e-10 -7.15382197e-05 -8.59605858e-06 -1.02721355e-03
 -4.99354655e-04  1.53512978e-02  3.01644571e-01  6.84610834e-01]
    CPU time for DIIS                                                    0.00 sec, wall time      0.00 sec, GPU time      0.57 ms
    CPU time for eig                                                     0.00 sec, wall time      0.00 sec, GPU time      4.17 ms
  HOMO = -0.242614700859478  LUMO = 0.0675442103909955
416000 grids on Device 0
0 - 416000 grids are calculated on Device 0.
mem_info: unallocated=31358.06 MB, used=74.22 MB, free=201.93 MB, free_blocks=30
33093.055488 MB memory is available on Device 0, block_size None
    CPU time for eval rho on Device 0                                    0.01 sec, wall time      0.01 sec, GPU time     19.32 ms
    CPU time for eval vxc on Device 0                                    0.01 sec, wall time      0.01 sec, GPU time      0.74 ms
0 - 416000 grids are calculated on Device 0.
mem_info: unallocated=31294.06 MB, used=86.29 MB, free=189.86 MB, free_blocks=29
33013.288448 MB memory is available on Device 0, block_size None
    CPU time for eval integration on 0                                   0.01 sec, wall time      0.01 sec, GPU time     20.04 ms
    CPU time for nr_rks                                                  0.04 sec, wall time      0.04 sec, GPU time     41.26 ms
nelec by numeric integration = 40.00000357129723
    CPU time for vxc                                                     0.04 sec, wall time      0.04 sec, GPU time     41.32 ms
30.244 GB memory available on Device 0, block size = 256
    CPU time for vj and vk on Device 0                                   0.00 sec, wall time      0.00 sec, GPU time      1.81 ms
    CPU time for vj and vk                                               0.00 sec, wall time      0.00 sec, GPU time      2.62 ms
    CPU time for veff                                                    0.00 sec, wall time      0.00 sec, GPU time      2.89 ms
    CPU time for veff                                                    0.05 sec, wall time      0.05 sec, GPU time     44.59 ms
E1 = -631.9525130922203  Ecoul = 279.84752872430977  Exc = -30.55506358006548
    CPU time for cycle=8                                                 0.05 sec, wall time      0.05 sec, GPU time     49.69 ms
cycle= 8 E= -196.024291002749  delta_E= -4.83e-10  |g|= 2.03e-05  |ddm|= 6.59e-05
diis-c [-3.67214642e-11  1.98316321e-05  1.93384493e-05 -5.29683989e-04
 -2.46533733e-03  7.43067589e-04  5.48794571e-02  3.27182906e-01
  6.20150421e-01]
    CPU time for DIIS                                                    0.00 sec, wall time      0.00 sec, GPU time      0.62 ms
    CPU time for eig                                                     0.00 sec, wall time      0.00 sec, GPU time      4.17 ms
  HOMO = -0.242614417531827  LUMO = 0.0675444198783448
416000 grids on Device 0
0 - 416000 grids are calculated on Device 0.
mem_info: unallocated=31358.06 MB, used=74.33 MB, free=201.82 MB, free_blocks=30
33092.938752 MB memory is available on Device 0, block_size None
    CPU time for eval rho on Device 0                                    0.01 sec, wall time      0.01 sec, GPU time     19.46 ms
    CPU time for eval vxc on Device 0                                    0.01 sec, wall time      0.01 sec, GPU time      0.74 ms
0 - 416000 grids are calculated on Device 0.
mem_info: unallocated=31294.06 MB, used=86.40 MB, free=189.75 MB, free_blocks=29
33013.171712 MB memory is available on Device 0, block_size None
    CPU time for eval integration on 0                                   0.01 sec, wall time      0.01 sec, GPU time     20.08 ms
    CPU time for nr_rks                                                  0.04 sec, wall time      0.04 sec, GPU time     41.44 ms
nelec by numeric integration = 40.00000357129105
    CPU time for vxc                                                     0.04 sec, wall time      0.04 sec, GPU time     41.51 ms
30.244 GB memory available on Device 0, block size = 256
    CPU time for vj and vk on Device 0                                   0.00 sec, wall time      0.00 sec, GPU time      1.79 ms
    CPU time for vj and vk                                               0.00 sec, wall time      0.00 sec, GPU time      2.74 ms
    CPU time for veff                                                    0.00 sec, wall time      0.00 sec, GPU time      3.25 ms
    CPU time for veff                                                    0.05 sec, wall time      0.05 sec, GPU time     45.17 ms
E1 = -631.9524911884434  Ecoul = 279.8475052034563  Exc = -30.555061963089614
    CPU time for cycle=9                                                 0.05 sec, wall time      0.05 sec, GPU time     50.36 ms
cycle= 9 E= -196.02429100285  delta_E= -1.01e-10  |g|= 2.56e-06  |ddm|= 2.06e-05
diis-c [-2.68400749e-12  8.35881691e-01 -9.08032698e-07 -1.69586346e-05
 -1.97380769e-04 -2.64271828e-04 -3.99023254e-03  3.69324060e-02
  1.31655655e-01]
    CPU time for DIIS                                                    0.00 sec, wall time      0.00 sec, GPU time      0.62 ms
    CPU time for eig                                                     0.00 sec, wall time      0.00 sec, GPU time      4.17 ms
  HOMO = -0.242614478661521  LUMO = 0.0675444028781989
416000 grids on Device 0
0 - 416000 grids are calculated on Device 0.
mem_info: unallocated=31358.06 MB, used=74.33 MB, free=201.82 MB, free_blocks=32
33092.938752 MB memory is available on Device 0, block_size None
    CPU time for eval rho on Device 0                                    0.01 sec, wall time      0.01 sec, GPU time     19.25 ms
    CPU time for eval vxc on Device 0                                    0.01 sec, wall time      0.01 sec, GPU time      0.74 ms
0 - 416000 grids are calculated on Device 0.
mem_info: unallocated=31294.06 MB, used=86.40 MB, free=189.75 MB, free_blocks=30
33013.171712 MB memory is available on Device 0, block_size None
    CPU time for eval integration on 0                                   0.01 sec, wall time      0.01 sec, GPU time     20.10 ms
    CPU time for nr_rks                                                  0.04 sec, wall time      0.04 sec, GPU time     41.26 ms
nelec by numeric integration = 40.000003571294215
    CPU time for vxc                                                     0.04 sec, wall time      0.04 sec, GPU time     41.32 ms
30.244 GB memory available on Device 0, block size = 256
    CPU time for vj and vk on Device 0                                   0.00 sec, wall time      0.00 sec, GPU time      1.81 ms
    CPU time for vj and vk                                               0.00 sec, wall time      0.00 sec, GPU time      2.60 ms
    CPU time for veff                                                    0.00 sec, wall time      0.00 sec, GPU time      2.87 ms
    CPU time for veff                                                    0.05 sec, wall time      0.05 sec, GPU time     44.57 ms
E1 = -631.9524924258279  Ecoul = 279.84750649314697  Exc = -30.555062015397688
    CPU time for cycle=10                                                0.05 sec, wall time      0.05 sec, GPU time     49.72 ms
cycle= 10 E= -196.024291002852  delta_E= -1.88e-12  |g|= 1.13e-06  |ddm|= 5.49e-06
    CPU time for SCF                                                     4.67 sec, wall time      6.63 sec, GPU time   6627.26 ms
converged SCF energy = -196.024291002852


******** <class 'gpu4pyscf.grad.rhf.Gradients_Scanner'> for <class 'pyscf.scf.hf.DFRKS_Scanner'> ********
unit = Eh/Bohr
max_memory 4000 MB (current use 1873 MB)
Number of shells for each [l, nctr] group
    [0 1] : 20
    [0 3] : 10
    [0 5] : 5
    [1 1] : 15
    [1 3] : 5
    [2 1] : 5
    CPU time for Initialize q_cond                                       0.00 sec, wall time      0.00 sec, GPU time      0.78 ms
    CPU time for Get AO pairing                                          0.00 sec, wall time      0.00 sec, GPU time      0.39 ms
    CPU time for AO indices                                              0.00 sec, wall time      0.00 sec, GPU time      0.11 ms
    CPU time for Initialize GPU cache                                    0.00 sec, wall time      0.00 sec, GPU time      0.42 ms
    CPU time for gradients of h1e                                        0.41 sec, wall time      0.23 sec, GPU time    233.33 ms
416000 grids on Device 0
0 - 416000 grids are calculated on Device 0.
mem_info: unallocated=31358.06 MB, used=32.86 MB, free=243.30 MB, free_blocks=29
33136.427008 MB memory is available on Device 0, block_size None
    CPU time for gradient of vxc                                         0.14 sec, wall time      0.38 sec, GPU time    383.52 ms
    CPU time for grad vxc                                                0.14 sec, wall time      0.38 sec, GPU time    384.29 ms
    CPU time for vxc total                                               0.14 sec, wall time      0.38 sec, GPU time    384.47 ms
Number of shells for each [l, nprim] group
    [0 5] : 5
    [0 3] : 10
    [0 1] : 20
    [1 3] : 5
    [1 1] : 15
    [2 1] : 5
Number of shells for each [l, nprim] group
    [0 5] : 5
    [0 3] : 10
    [0 1] : 55
    [1 3] : 5
    [1 1] : 55
    [2 2] : 5
    [2 1] : 40
    [3 2] : 5
    [4 1] : 5
dm_factor shape (125, 20)
sp_batches = 1, ksh_batches = 9
32.841 GB free memory. nao_pair=8005 naux=645 batch_size=645 blksize=645
    CPU time for contract dm                                             0.02 sec, wall time      1.12 sec, GPU time   1120.23 ms
int2c2e_kernel, nimgs = 1
    CPU time for contract int3c2e_ejk_ip1                                0.02 sec, wall time      0.68 sec, GPU time    768.00 ms
int2c2e_kernel, nimgs = 1
    CPU time for contract int2c2e_ip1                                    0.10 sec, wall time      0.10 sec, GPU time      4.74 ms
    CPU time for gradients of veff                                       0.29 sec, wall time      2.29 sec, GPU time   2285.51 ms
Computing Gradients of NR-HF Coulomb repulsion
    CPU time for gradients of 2e part                                    0.29 sec, wall time      2.29 sec, GPU time   2285.56 ms
    CPU time for gradients of electronic part                            0.70 sec, wall time      2.52 sec, GPU time   2522.73 ms
    CPU time for SCF gradients                                           0.70 sec, wall time      2.52 sec, GPU time   2522.92 ms
--------------- DFRKS_Scanner gradients ---------------
         x                y                z
0 C     0.0068741559     0.0012325856    -0.0037903637
1 H    -0.0170473311     0.0168003114    -0.0122873708
2 H     0.0115638795    -0.0236318111     0.0153574799
3 C     0.0374549270     0.0027968791     0.0077381877
4 H    -0.0552283814     0.0026585378     0.0259310438
5 H     0.0387637879    -0.0096894981    -0.0029764753
6 C    -0.0272435431    -0.0086204533     0.0021442140
7 H     0.0042826734     0.0274160556    -0.0366585765
8 H     0.0000530507    -0.0118842755     0.0172274001
9 C    -0.0141230049    -0.0322718709    -0.0116054902
10 H    -0.0124850630     0.0028396243    -0.0167628959
11 H     0.0289256034    -0.0031986452     0.0343448678
12 C     0.0076865703     0.0444517897    -0.0050786525
13 H     0.0027760990     0.0368703015    -0.0032586980
14 H    -0.0122511987    -0.0457662482    -0.0103255723
----------------------------------------------
cycle 1: E = -196.024291003  dE = -196.024  norm(grad) = 0.146733

Geometry optimization cycle 2
Cartesian coordinates (Angstrom)
 Atom        New coordinates             dX        dY        dZ
   C   1.717666   1.278993   0.379801   -0.016654 -0.007236  0.002979
   H   2.565300   1.285225  -0.327543    0.022184 -0.048822  0.039296
   H   1.893694   2.106813   1.091902   -0.062892  0.044004 -0.033502
   C   0.473852   1.414878  -0.512529   -0.017596  0.012582 -0.035453
   H   0.253420   0.931021  -1.482860    0.161580 -0.014364 -0.084728
   H   0.409040   2.505877  -0.681912   -0.154533  0.024867 -0.012236
   C  -0.551056   0.511011   0.267826    0.031117  0.004055  0.013254
   H  -0.972140   1.236043   0.988506    0.031373 -0.081599  0.115780
   H  -1.386800   0.040005  -0.272949    0.037926  0.014486 -0.014304
   C   0.377809  -0.688213   0.701956    0.006781  0.031248 -0.001961
   H  -0.267045  -1.318724   1.333783    0.025938  0.038714  0.033113
   H   0.906871  -1.344091  -0.012290   -0.089733  0.049556 -0.105796
   C   1.580166   0.075129   1.332467    0.008526 -0.031273  0.023504
   H   2.612895  -0.320705   1.355221   -0.020580 -0.148689  0.019860
   H   1.230690   0.102437   2.379699    0.036444  0.112294  0.040242
New geometry
   1 C      1.717665678279   1.278993115237   0.379800888049 AA    3.245917705512   2.416946703003   0.717719660280 Bohr
   2 H      2.565299886123   1.285224782625  -0.327543081971 AA    4.847714212151   2.428722847665  -0.618966718922 Bohr
   3 H      1.893693889607   2.106812986524   1.091901814254 AA    3.578562815119   3.981299540208   2.063395383856 Bohr
   4 C      0.473851641729   1.414877747788  -0.512528507352 AA    0.895449826543   2.673731443061  -0.968538509928 Bohr
   5 H      0.253419794168   0.931021029658  -1.482860344574 AA    0.478894005521   1.759374762265  -2.802199932223 Bohr
   6 H      0.409040105073   2.505877332515  -0.681912229196 AA    0.772973772551   4.735421860209  -1.288627354171 Bohr
   7 C     -0.551055576567   0.511011416352   0.267825683154 AA   -1.041344119125   0.965671623432   0.506117190286 Bohr
   8 H     -0.972139596389   1.236043413645   0.988506039222 AA   -1.837077592020   2.335783529861   1.868005686609 Bohr
   9 H     -1.386799982057   0.040005077063  -0.272949309409 AA   -2.620672155640   0.075598639241  -0.515799440671 Bohr
  10 C      0.377808941529  -0.688213067211   0.701955795321 AA    0.713955426902  -1.300534212375   1.326504204707 Bohr
  11 H     -0.267044756606  -1.318723913812   1.333783359096 AA   -0.504641452986  -2.492027031019   2.520485258193 Bohr
  12 H      0.906871199102  -1.344090875570  -0.012290364522 AA    1.713738196559  -2.539963641355  -0.023225422917 Bohr
  13 C      1.580166332470   0.075128793968   1.332467178580 AA    2.986081599626   0.141972844668   2.517998037488 Bohr
  14 H      2.612895175989  -0.320705074761   1.355220741490 AA    4.937656274817  -0.606044758057   2.560996039745 Bohr
  15 H      1.230690211537   0.102437396363   2.379699491125 AA    2.325667443988   0.193578624039   4.496980296993 Bohr


******** <class 'pyscf.scf.hf.DFRKS_Scanner'> ********
method = DFRKS_Scanner
initial guess = minao
damping factor = None
level_shift factor = None
DIIS = <class 'gpu4pyscf.scf.diis.CDIIS'>
diis_start_cycle = 1
diis_space = 8
diis_damp = 0
SCF conv_tol = 1e-10
SCF conv_tol_grad = None
SCF max_cycles = 50
direct_scf = False
XC library gpu4pyscf.dft.libxc version 7.0.0 (CUDA)
    unable to decode the reference due to https://github.com/NVIDIA/cuda-python/issues/29
XC functionals = PBE0
radial grids: 
Treutler-Ahlrichs [JCP 102, 346 (1995); DOI:10.1063/1.469408] (M4) radial grids

becke partition: Becke, JCP 88, 2547 (1988); DOI:10.1063/1.454033
pruning grids: <function nwchem_prune at 0x1538f553d760>
grids dens level: 3
symmetrized grids: False
atomic radii adjust function: <function treutler_atomic_radii_adjust at 0x1538f553d800>
User specified grid scheme (99, 590)
small_rho_cutoff = 1e-07
Set gradient conv threshold to 1e-05
Number of shells for each [l, nprim] group
    [0 5] : 5
    [0 3] : 10
    [0 1] : 20
    [1 3] : 5
    [1 1] : 15
    [2 1] : 5
sp_blocks = 21, ksh_blocks = 1, shm_size = 59512 B
    CPU time for processing contract_int3c2e_auxvec                      0.00 sec, wall time      0.00 sec, GPU time      2.58 ms
Number of shells for each [l, nprim] group
    [0 5] : 5
    [0 3] : 10
    [0 1] : 20
    [1 3] : 5
    [1 1] : 15
    [2 1] : 5
Number of shells for each [l, nprim] group
    [0 5] : 5
    [0 3] : 10
    [0 1] : 20
    [1 3] : 5
    [1 1] : 15
    [2 1] : 5
    CPU time for hcore                                                   0.64 sec, wall time      0.02 sec, GPU time     17.35 ms
atom C rad-grids = 99, ang-grids = [ 50  50  50  50  50  50  50  50  50  50  50  50  50  50  50  50  50  50
  50  50  50  50  50  50  50  50  50  50  50  50  86  86  86  86  86  86
  86  86  86  86  86  86 434 434 434 434 434 434 434 434 434 590 590 590
 590 590 590 590 590 590 590 590 590 590 590 590 590 590 590 590 590 590
 590 590 590 590 590 434 434 434 434 434 434 434 434 434 434 434 434 434
 434 434 434 434 434 434 434 434 434]
atom H rad-grids = 99, ang-grids = [ 50  50  50  50  50  50  50  50  50  50  50  50  50  50  50  50  50  50
  50  50  50  50  50  50  50  50  50  50  50  50  86  86  86  86  86  86
  86 434 434 434 434 434 434 434 434 434 434 590 590 590 590 590 590 590
 590 590 590 590 590 590 590 590 590 590 590 590 590 590 590 590 590 590
 590 590 434 434 434 434 434 434 434 434 434 434 434 434 434 434 434 434
 434 434 434 434 434 434 434 434 434]
    CPU time for generating atomic grids                                 0.00 sec, wall time      0.00 sec, GPU time      4.84 ms
Padding 110 grids
    CPU time for sorting grids                                           0.13 sec, wall time      0.00 sec, GPU time      0.42 ms
tot grids = 488960
Number of shells for each [l, nctr] group
    [0 1] : 20
    [0 3] : 10
    [0 5] : 5
    [1 1] : 15
    [1 3] : 5
    [2 1] : 5
0 - 488960 grids are calculated on Device 0.
mem_info: unallocated=31120.06 MB, used=27.20 MB, free=479.62 MB, free_blocks=35
33134.672896 MB memory is available on Device 0, block_size None
    CPU time for eval rho                                                1.12 sec, wall time      0.03 sec, GPU time     39.75 ms
Drop grids 73956
prune_by_density_: 228 padding grids
    CPU time for setting up grids                                        1.26 sec, wall time      0.05 sec, GPU time     46.25 ms
415232 grids on Device 0
0 - 415232 grids are calculated on Device 0.
mem_info: unallocated=31120.06 MB, used=40.08 MB, free=466.75 MB, free_blocks=32
33121.168896 MB memory is available on Device 0, block_size None
    CPU time for eval rho on Device 0                                    0.03 sec, wall time      0.03 sec, GPU time     38.58 ms
    CPU time for eval vxc on Device 0                                    0.01 sec, wall time      0.01 sec, GPU time      0.76 ms
0 - 415232 grids are calculated on Device 0.
mem_info: unallocated=31056.06 MB, used=52.18 MB, free=454.65 MB, free_blocks=31
33041.376768 MB memory is available on Device 0, block_size None
    CPU time for eval integration on 0                                   0.01 sec, wall time      0.01 sec, GPU time     20.04 ms
    CPU time for nr_rks                                                  0.06 sec, wall time      0.06 sec, GPU time     60.10 ms
nelec by numeric integration = 40.211763622774846
    CPU time for vxc                                                     1.32 sec, wall time      0.11 sec, GPU time    106.42 ms
Build CDERI ...
Psi4 predefined JKFIT basis set def2-svp-jkfit for HF
Default auxbasis def2-svp-jkfit is applied universally
num shells = 185, num cGTOs = 555
    CPU time for 2c2e                                                    0.00 sec, wall time      0.01 sec, GPU time      7.91 ms
Number of shells for each [l, nctr] group
    [0 1] : 20
    [0 3] : 10
    [0 5] : 5
    [1 1] : 15
    [1 3] : 5
    [2 1] : 5
Number of shells for each [l, nctr] group
    [0 1] : 55
    [0 3] : 10
    [0 5] : 5
    [1 1] : 55
    [1 3] : 5
    [2 1] : 40
    [2 2] : 5
    [3 2] : 5
    [4 1] : 5
    CPU time for Initialize q_cond                                       0.00 sec, wall time      0.00 sec, GPU time      1.10 ms
    CPU time for Get AO pairing                                          0.00 sec, wall time      0.00 sec, GPU time      0.24 ms
    CPU time for AO indices                                              0.00 sec, wall time      0.00 sec, GPU time      0.09 ms
    CPU time for Aux AO indices                                          0.00 sec, wall time      0.00 sec, GPU time      0.18 ms
    CPU time for Get AO pairs                                            0.00 sec, wall time      0.00 sec, GPU time      0.35 ms
    CPU time for prepare intopt                                          0.06 sec, wall time      0.00 sec, GPU time      3.60 ms
size of aux basis 555
Saving CDERI on GPU
CDERI size 0.030 GB on Device 0
    CPU time for Initialize GPU cache on Device 0                        0.00 sec, wall time      0.00 sec, GPU time      0.30 ms
    CPU time for solve 5 / 21 on Device 0                                0.06 sec, wall time      0.00 sec, GPU time      3.20 ms
    CPU time for transfer data for 5 / 21 on Device 0                    0.00 sec, wall time      0.00 sec, GPU time      0.03 ms
    CPU time for solve 4 / 21 on Device 0                                0.00 sec, wall time      0.00 sec, GPU time      2.48 ms
    CPU time for transfer data for 4 / 21 on Device 0                    0.00 sec, wall time      0.00 sec, GPU time      0.02 ms
    CPU time for solve 2 / 21 on Device 0                                0.00 sec, wall time      0.00 sec, GPU time      1.91 ms
    CPU time for transfer data for 2 / 21 on Device 0                    0.00 sec, wall time      0.00 sec, GPU time      0.02 ms
    CPU time for solve 12 / 21 on Device 0                               0.00 sec, wall time      0.00 sec, GPU time      3.43 ms
    CPU time for transfer data for 12 / 21 on Device 0                   0.00 sec, wall time      0.00 sec, GPU time      0.02 ms
    CPU time for solve 3 / 21 on Device 0                                0.00 sec, wall time      0.00 sec, GPU time      1.66 ms
    CPU time for transfer data for 3 / 21 on Device 0                    0.00 sec, wall time      0.00 sec, GPU time      0.02 ms
    CPU time for solve 14 / 21 on Device 0                               0.00 sec, wall time      0.00 sec, GPU time      3.81 ms
    CPU time for transfer data for 14 / 21 on Device 0                   0.00 sec, wall time      0.00 sec, GPU time      0.02 ms
    CPU time for solve 17 / 21 on Device 0                               0.00 sec, wall time      0.00 sec, GPU time      2.27 ms
    CPU time for transfer data for 17 / 21 on Device 0                   0.00 sec, wall time      0.00 sec, GPU time      0.02 ms
    CPU time for solve 11 / 21 on Device 0                               0.00 sec, wall time      0.00 sec, GPU time      2.37 ms
    CPU time for transfer data for 11 / 21 on Device 0                   0.00 sec, wall time      0.00 sec, GPU time      0.02 ms
    CPU time for solve 1 / 21 on Device 0                                0.00 sec, wall time      0.00 sec, GPU time      1.46 ms
    CPU time for transfer data for 1 / 21 on Device 0                    0.00 sec, wall time      0.00 sec, GPU time      0.02 ms
    CPU time for solve 0 / 21 on Device 0                                0.00 sec, wall time      0.00 sec, GPU time      1.38 ms
    CPU time for transfer data for 0 / 21 on Device 0                    0.00 sec, wall time      0.00 sec, GPU time      0.02 ms
    CPU time for solve 8 / 21 on Device 0                                0.00 sec, wall time      0.00 sec, GPU time      1.92 ms
    CPU time for transfer data for 8 / 21 on Device 0                    0.00 sec, wall time      0.00 sec, GPU time      0.02 ms
    CPU time for solve 16 / 21 on Device 0                               0.00 sec, wall time      0.00 sec, GPU time      1.72 ms
    CPU time for transfer data for 16 / 21 on Device 0                   0.00 sec, wall time      0.00 sec, GPU time      0.02 ms
    CPU time for solve 10 / 21 on Device 0                               0.00 sec, wall time      0.00 sec, GPU time      1.50 ms
    CPU time for transfer data for 10 / 21 on Device 0                   0.00 sec, wall time      0.00 sec, GPU time      0.02 ms
    CPU time for solve 20 / 21 on Device 0                               0.00 sec, wall time      0.00 sec, GPU time      2.23 ms
    CPU time for transfer data for 20 / 21 on Device 0                   0.00 sec, wall time      0.00 sec, GPU time      0.02 ms
    CPU time for solve 19 / 21 on Device 0                               0.00 sec, wall time      0.00 sec, GPU time      2.71 ms
    CPU time for transfer data for 19 / 21 on Device 0                   0.00 sec, wall time      0.00 sec, GPU time      0.02 ms
    CPU time for solve 7 / 21 on Device 0                                0.00 sec, wall time      0.00 sec, GPU time      1.62 ms
    CPU time for transfer data for 7 / 21 on Device 0                    0.00 sec, wall time      0.00 sec, GPU time      0.02 ms
    CPU time for solve 15 / 21 on Device 0                               0.00 sec, wall time      0.00 sec, GPU time      1.37 ms
    CPU time for transfer data for 15 / 21 on Device 0                   0.00 sec, wall time      0.00 sec, GPU time      0.02 ms
    CPU time for solve 13 / 21 on Device 0                               0.00 sec, wall time      0.00 sec, GPU time      1.90 ms
    CPU time for transfer data for 13 / 21 on Device 0                   0.00 sec, wall time      0.00 sec, GPU time      0.02 ms
    CPU time for solve 6 / 21 on Device 0                                0.00 sec, wall time      0.00 sec, GPU time      1.38 ms
    CPU time for transfer data for 6 / 21 on Device 0                    0.00 sec, wall time      0.00 sec, GPU time      0.02 ms
    CPU time for solve 9 / 21 on Device 0                                0.00 sec, wall time      0.00 sec, GPU time      1.55 ms
    CPU time for transfer data for 9 / 21 on Device 0                    0.00 sec, wall time      0.00 sec, GPU time      0.02 ms
    CPU time for solve 18 / 21 on Device 0                               0.00 sec, wall time      0.00 sec, GPU time      1.65 ms
    CPU time for transfer data for 18 / 21 on Device 0                   0.00 sec, wall time      0.00 sec, GPU time      0.03 ms
    CPU time for cholesky_eri                                            0.29 sec, wall time      0.05 sec, GPU time     49.84 ms
    CPU time for init jk                                                 0.29 sec, wall time      0.06 sec, GPU time     57.84 ms
30.246 GB memory available on Device 0, block size = 256
    CPU time for vj and vk on Device 0                                   0.00 sec, wall time      0.00 sec, GPU time      4.49 ms
    CPU time for vj and vk                                               0.01 sec, wall time      0.01 sec, GPU time      5.58 ms
    CPU time for veff                                                    0.30 sec, wall time      0.06 sec, GPU time     63.93 ms
E1 = -633.9951288398806  Ecoul = 282.0383750941395  Exc = -30.654230009771922
init E= -196.131406061875
cond(S) = 5991.540985863778
    CPU time for SCF initialization                                      2.26 sec, wall time      0.19 sec, GPU time    192.02 ms
    CPU time for DIIS                                                    0.00 sec, wall time      0.00 sec, GPU time      0.02 ms
    CPU time for eig                                                     0.00 sec, wall time      0.00 sec, GPU time      3.71 ms
  HOMO = -0.226150500962377  LUMO = 0.105086370754413
415232 grids on Device 0
0 - 415232 grids are calculated on Device 0.
mem_info: unallocated=31120.06 MB, used=73.52 MB, free=433.31 MB, free_blocks=33
33086.105088 MB memory is available on Device 0, block_size None
    CPU time for eval rho on Device 0                                    0.01 sec, wall time      0.01 sec, GPU time     19.57 ms
    CPU time for eval vxc on Device 0                                    0.01 sec, wall time      0.01 sec, GPU time      0.75 ms
0 - 415232 grids are calculated on Device 0.
mem_info: unallocated=31056.06 MB, used=85.60 MB, free=421.23 MB, free_blocks=34
33006.332416 MB memory is available on Device 0, block_size None
    CPU time for eval integration on 0                                   0.01 sec, wall time      0.01 sec, GPU time     20.15 ms
    CPU time for nr_rks                                                  0.04 sec, wall time      0.04 sec, GPU time     41.98 ms
nelec by numeric integration = 40.00001008120772
    CPU time for vxc                                                     0.04 sec, wall time      0.04 sec, GPU time     42.05 ms
30.245 GB memory available on Device 0, block size = 256
    CPU time for vj and vk on Device 0                                   0.00 sec, wall time      0.00 sec, GPU time      1.80 ms
    CPU time for vj and vk                                               0.00 sec, wall time      0.00 sec, GPU time      2.60 ms
    CPU time for veff                                                    0.00 sec, wall time      0.00 sec, GPU time      2.88 ms
    CPU time for veff                                                    0.05 sec, wall time      0.05 sec, GPU time     45.29 ms
E1 = -630.9594388930835  Ecoul = 278.87115086167455  Exc = -30.49075474700183
    CPU time for cycle=1                                                 0.05 sec, wall time      0.05 sec, GPU time     49.37 ms
cycle= 1 E= -196.099465084773  delta_E= 0.0319  |g|= 0.113  |ddm|= 0.417
diis-c [-0.0127024  1.       ]
    CPU time for DIIS                                                    0.00 sec, wall time      0.00 sec, GPU time      0.34 ms
    CPU time for eig                                                     0.00 sec, wall time      0.00 sec, GPU time      4.18 ms
  HOMO = -0.290627015649488  LUMO = 0.0579194197829893
415232 grids on Device 0
0 - 415232 grids are calculated on Device 0.
mem_info: unallocated=31120.06 MB, used=73.74 MB, free=433.08 MB, free_blocks=32
33085.872128 MB memory is available on Device 0, block_size None
    CPU time for eval rho on Device 0                                    0.01 sec, wall time      0.01 sec, GPU time     19.52 ms
    CPU time for eval vxc on Device 0                                    0.01 sec, wall time      0.01 sec, GPU time      0.74 ms
0 - 415232 grids are calculated on Device 0.
mem_info: unallocated=31056.06 MB, used=85.82 MB, free=421.01 MB, free_blocks=33
33006.099456 MB memory is available on Device 0, block_size None
    CPU time for eval integration on 0                                   0.01 sec, wall time      0.01 sec, GPU time     20.11 ms
    CPU time for nr_rks                                                  0.04 sec, wall time      0.04 sec, GPU time     41.53 ms
nelec by numeric integration = 40.00000965470986
    CPU time for vxc                                                     0.04 sec, wall time      0.04 sec, GPU time     41.59 ms
30.245 GB memory available on Device 0, block size = 256
    CPU time for vj and vk on Device 0                                   0.00 sec, wall time      0.00 sec, GPU time      1.79 ms
    CPU time for vj and vk                                               0.00 sec, wall time      0.00 sec, GPU time      2.75 ms
    CPU time for veff                                                    0.00 sec, wall time      0.00 sec, GPU time      3.25 ms
    CPU time for veff                                                    0.05 sec, wall time      0.05 sec, GPU time     45.24 ms
E1 = -632.8344547837886  Ecoul = 280.8760646350994  Exc = -30.619136552350167
    CPU time for cycle=2                                                 0.05 sec, wall time      0.05 sec, GPU time     50.23 ms
cycle= 2 E= -196.097949007401  delta_E= 0.00152  |g|= 0.143  |ddm|= 0.309
diis-c [-3.01424708e-04  5.60722366e-01  4.39277634e-01]
    CPU time for DIIS                                                    0.00 sec, wall time      0.00 sec, GPU time      0.37 ms
    CPU time for eig                                                     0.00 sec, wall time      0.00 sec, GPU time      4.16 ms
  HOMO = -0.275551230506392  LUMO = 0.0641404378053076
415232 grids on Device 0
0 - 415232 grids are calculated on Device 0.
mem_info: unallocated=31120.06 MB, used=73.85 MB, free=432.97 MB, free_blocks=33
33085.755392 MB memory is available on Device 0, block_size None
    CPU time for eval rho on Device 0                                    0.01 sec, wall time      0.01 sec, GPU time     18.99 ms
    CPU time for eval vxc on Device 0                                    0.01 sec, wall time      0.01 sec, GPU time      0.74 ms
0 - 415232 grids are calculated on Device 0.
mem_info: unallocated=31056.06 MB, used=85.93 MB, free=420.90 MB, free_blocks=34
33005.98272 MB memory is available on Device 0, block_size None
    CPU time for eval integration on 0                                   0.01 sec, wall time      0.01 sec, GPU time     20.11 ms
    CPU time for nr_rks                                                  0.04 sec, wall time      0.04 sec, GPU time     41.00 ms
nelec by numeric integration = 40.00000985810979
    CPU time for vxc                                                     0.04 sec, wall time      0.04 sec, GPU time     41.06 ms
30.245 GB memory available on Device 0, block size = 256
    CPU time for vj and vk on Device 0                                   0.00 sec, wall time      0.00 sec, GPU time      1.79 ms
    CPU time for vj and vk                                               0.00 sec, wall time      0.00 sec, GPU time      2.74 ms
    CPU time for veff                                                    0.00 sec, wall time      0.00 sec, GPU time      3.23 ms
    CPU time for veff                                                    0.05 sec, wall time      0.05 sec, GPU time     44.69 ms
E1 = -631.8225501967016  Ecoul = 279.79312783655655  Exc = -30.553412079985428
    CPU time for cycle=3                                                 0.05 sec, wall time      0.05 sec, GPU time     49.86 ms
cycle= 3 E= -196.103256746492  delta_E= -0.00531  |g|= 0.00498  |ddm|= 0.142
diis-c [-1.21010179e-05  9.56432204e-02  6.70276946e-02  8.37329085e-01]
    CPU time for DIIS                                                    0.00 sec, wall time      0.00 sec, GPU time      0.42 ms
    CPU time for eig                                                     0.00 sec, wall time      0.00 sec, GPU time      4.16 ms
  HOMO = -0.274584851678763  LUMO = 0.0646692836955066
415232 grids on Device 0
0 - 415232 grids are calculated on Device 0.
mem_info: unallocated=31120.06 MB, used=73.97 MB, free=432.86 MB, free_blocks=37
33085.638656 MB memory is available on Device 0, block_size None
    CPU time for eval rho on Device 0                                    0.01 sec, wall time      0.01 sec, GPU time     19.65 ms
    CPU time for eval vxc on Device 0                                    0.01 sec, wall time      0.01 sec, GPU time      0.73 ms
0 - 415232 grids are calculated on Device 0.
mem_info: unallocated=31056.06 MB, used=86.04 MB, free=420.78 MB, free_blocks=38
33005.865984 MB memory is available on Device 0, block_size None
    CPU time for eval integration on 0                                   0.01 sec, wall time      0.01 sec, GPU time     20.14 ms
    CPU time for nr_rks                                                  0.04 sec, wall time      0.04 sec, GPU time     41.68 ms
nelec by numeric integration = 40.00000986771118
    CPU time for vxc                                                     0.04 sec, wall time      0.04 sec, GPU time     41.75 ms
30.245 GB memory available on Device 0, block size = 256
    CPU time for vj and vk on Device 0                                   0.00 sec, wall time      0.00 sec, GPU time      2.03 ms
    CPU time for vj and vk                                               0.00 sec, wall time      0.00 sec, GPU time      2.95 ms
    CPU time for veff                                                    0.00 sec, wall time      0.00 sec, GPU time      3.45 ms
    CPU time for veff                                                    0.05 sec, wall time      0.05 sec, GPU time     45.60 ms
E1 = -631.8308513047092  Ecoul = 279.8013094135391  Exc = -30.55329773534115
    CPU time for cycle=4                                                 0.05 sec, wall time      0.05 sec, GPU time     50.87 ms
cycle= 4 E= -196.103261932873  delta_E= -5.19e-06  |g|= 0.00286  |ddm|= 0.00964
diis-c [-1.29411670e-06  2.16136714e-02  1.17259091e-02  3.79495899e-01
  5.87164521e-01]
    CPU time for DIIS                                                    0.00 sec, wall time      0.00 sec, GPU time      0.48 ms
    CPU time for eig                                                     0.00 sec, wall time      0.00 sec, GPU time      4.15 ms
  HOMO = -0.274335544742424  LUMO = 0.0648118483065153
415232 grids on Device 0
0 - 415232 grids are calculated on Device 0.
mem_info: unallocated=31120.06 MB, used=74.08 MB, free=432.75 MB, free_blocks=34
33085.52192 MB memory is available on Device 0, block_size None
    CPU time for eval rho on Device 0                                    0.01 sec, wall time      0.01 sec, GPU time     19.52 ms
    CPU time for eval vxc on Device 0                                    0.01 sec, wall time      0.01 sec, GPU time      0.73 ms
0 - 415232 grids are calculated on Device 0.
mem_info: unallocated=31056.06 MB, used=86.15 MB, free=420.67 MB, free_blocks=34
33005.749248 MB memory is available on Device 0, block_size None
    CPU time for eval integration on 0                                   0.01 sec, wall time      0.01 sec, GPU time     20.16 ms
    CPU time for nr_rks                                                  0.04 sec, wall time      0.04 sec, GPU time     41.57 ms
nelec by numeric integration = 40.00000986750423
    CPU time for vxc                                                     0.04 sec, wall time      0.04 sec, GPU time     41.63 ms
30.245 GB memory available on Device 0, block size = 256
    CPU time for vj and vk on Device 0                                   0.00 sec, wall time      0.00 sec, GPU time      1.76 ms
    CPU time for vj and vk                                               0.00 sec, wall time      0.00 sec, GPU time      2.69 ms
    CPU time for veff                                                    0.00 sec, wall time      0.00 sec, GPU time      3.15 ms
    CPU time for veff                                                    0.05 sec, wall time      0.05 sec, GPU time     45.17 ms
E1 = -631.8177439706694  Ecoul = 279.7874063638447  Exc = -30.552503976858667
    CPU time for cycle=5                                                 0.05 sec, wall time      0.05 sec, GPU time     50.16 ms
cycle= 5 E= -196.103263890045  delta_E= -1.96e-06  |g|= 0.000601  |ddm|= 0.00334
diis-c [-4.19278352e-08 -4.77524826e-04 -1.55432856e-03  5.25556785e-02
  2.04779761e-01  7.44696414e-01]
    CPU time for DIIS                                                    0.00 sec, wall time      0.00 sec, GPU time      0.49 ms
    CPU time for eig                                                     0.00 sec, wall time      0.00 sec, GPU time      4.16 ms
  HOMO = -0.274355786889705  LUMO = 0.0648136623487971
415232 grids on Device 0
0 - 415232 grids are calculated on Device 0.
mem_info: unallocated=31120.06 MB, used=74.19 MB, free=432.64 MB, free_blocks=36
33085.405184 MB memory is available on Device 0, block_size None
    CPU time for eval rho on Device 0                                    0.01 sec, wall time      0.01 sec, GPU time     19.45 ms
    CPU time for eval vxc on Device 0                                    0.01 sec, wall time      0.01 sec, GPU time      0.73 ms
0 - 415232 grids are calculated on Device 0.
mem_info: unallocated=31056.06 MB, used=86.27 MB, free=420.56 MB, free_blocks=36
33005.632512 MB memory is available on Device 0, block_size None
    CPU time for eval integration on 0                                   0.01 sec, wall time      0.01 sec, GPU time     20.13 ms
    CPU time for nr_rks                                                  0.04 sec, wall time      0.04 sec, GPU time     41.47 ms
nelec by numeric integration = 40.00000986744408
    CPU time for vxc                                                     0.04 sec, wall time      0.04 sec, GPU time     41.54 ms
30.244 GB memory available on Device 0, block size = 256
    CPU time for vj and vk on Device 0                                   0.00 sec, wall time      0.00 sec, GPU time      1.77 ms
    CPU time for vj and vk                                               0.00 sec, wall time      0.00 sec, GPU time      2.73 ms
    CPU time for veff                                                    0.00 sec, wall time      0.00 sec, GPU time      3.23 ms
    CPU time for veff                                                    0.05 sec, wall time      0.05 sec, GPU time     45.17 ms
E1 = -631.819611678555  Ecoul = 279.7894202588401  Exc = -30.552650254921026
    CPU time for cycle=6                                                 0.05 sec, wall time      0.05 sec, GPU time     50.27 ms
cycle= 6 E= -196.103263980998  delta_E= -9.1e-08  |g|= 7.16e-05  |ddm|= 0.000724
diis-c [-1.42423616e-09 -8.46459410e-04 -6.50823455e-04 -3.12969483e-03
  1.88716531e-02  1.43983707e-01  8.41771618e-01]
    CPU time for DIIS                                                    0.00 sec, wall time      0.00 sec, GPU time      0.53 ms
    CPU time for eig                                                     0.00 sec, wall time      0.00 sec, GPU time      4.15 ms
  HOMO = -0.274354224481191  LUMO = 0.0648138021409424
415232 grids on Device 0
0 - 415232 grids are calculated on Device 0.
mem_info: unallocated=31120.06 MB, used=74.30 MB, free=432.53 MB, free_blocks=34
33085.288448 MB memory is available on Device 0, block_size None
    CPU time for eval rho on Device 0                                    0.01 sec, wall time      0.01 sec, GPU time     19.51 ms
    CPU time for eval vxc on Device 0                                    0.01 sec, wall time      0.01 sec, GPU time      0.73 ms
0 - 415232 grids are calculated on Device 0.
mem_info: unallocated=31056.06 MB, used=86.38 MB, free=420.45 MB, free_blocks=34
33005.515776 MB memory is available on Device 0, block_size None
    CPU time for eval integration on 0                                   0.01 sec, wall time      0.01 sec, GPU time     20.15 ms
    CPU time for nr_rks                                                  0.04 sec, wall time      0.04 sec, GPU time     41.54 ms
nelec by numeric integration = 40.00000986749092
[...]
      12   C                -0.04  0.05 -0.11   -0.02  0.02  0.03   -0.06  0.06 -0.00
      13   H                -0.03  0.06  0.10    0.01  0.06 -0.32   -0.15 -0.06 -0.28
      14   H                -0.21  0.11 -0.15    0.20 -0.23  0.14    0.23 -0.04  0.07
Mode                                 6                   7                   8
Irrep
Freq [cm^-1]                      880.1648            909.8443            924.8653
Reduced mass [au]                   2.0213              3.0367              1.8980
Force const [Dyne/A]                0.9226              1.4811              0.9565
Char temp [K]                    1266.3611           1309.0634           1330.6752
Normal mode                   x     y     z       x     y     z       x     y     z
       0   C                -0.04  0.03 -0.07   -0.12 -0.10  0.01   -0.03  0.01 -0.07
       1   H                -0.00  0.02 -0.02   -0.10 -0.15  0.05   -0.08  0.18 -0.15
       2   H                -0.03 -0.00 -0.02   -0.12 -0.08 -0.03   -0.18  0.08 -0.14
       3   C                 0.03  0.07 -0.02    0.07 -0.05  0.07    0.00 -0.06  0.09
       4   H                -0.02 -0.10  0.04    0.04  0.03  0.04   -0.11 -0.07  0.08
       5   H                -0.00  0.04 -0.17    0.19 -0.00  0.19    0.00 -0.06  0.12
       6   C                 0.09  0.02  0.07    0.04  0.02  0.01    0.04  0.05 -0.05
       7   H                -0.25 -0.02 -0.09    0.00  0.02 -0.02    0.05 -0.04  0.01
       8   H                 0.34 -0.09 -0.17    0.10  0.07 -0.08    0.04  0.35 -0.21
       9   C                -0.03 -0.07  0.08    0.04  0.04 -0.00   -0.05 -0.05 -0.03
      10   H                -0.03 -0.32 -0.13    0.15  0.07  0.09   -0.28 -0.01 -0.14
      11   H                 0.06  0.19 -0.10    0.03  0.01  0.02    0.05 -0.07  0.02
      12   C                -0.07 -0.03 -0.01   -0.06  0.08 -0.09    0.07  0.01  0.08
      13   H                -0.04  0.00 -0.10   -0.00  0.17 -0.21    0.10  0.05  0.06
      14   H                 0.06  0.00  0.01    0.02  0.03 -0.06    0.14  0.10  0.06
Mode                                 9                  10                  11
Irrep
Freq [cm^-1]                      934.8824            968.7368            999.9632
Reduced mass [au]                   2.2490              1.2686              1.2417
Force const [Dyne/A]                1.1581              0.7014              0.7315
Char temp [K]                    1345.0877           1393.7966           1438.7244
Normal mode                   x     y     z       x     y     z       x     y     z
       0   C                -0.01 -0.02  0.01   -0.04  0.04  0.04   -0.03 -0.02 -0.01
       1   H                 0.02 -0.04  0.06   -0.17 -0.12 -0.12   -0.16  0.17 -0.22
       2   H                -0.02  0.00 -0.02    0.17  0.09 -0.07    0.11 -0.21  0.24
       3   C                 0.05  0.06 -0.04    0.01 -0.07 -0.01   -0.01  0.03  0.05
       4   H                 0.06  0.06 -0.04    0.15  0.19 -0.08    0.31 -0.02  0.13
       5   H                 0.28  0.14 -0.05   -0.19 -0.12  0.19   -0.10 -0.03 -0.13
       6   C                -0.14  0.03 -0.02    0.01  0.03 -0.00    0.00 -0.03 -0.07
       7   H                -0.07  0.05  0.01   -0.03  0.37 -0.23    0.25  0.11 -0.02
       8   H                -0.21  0.19 -0.02    0.06 -0.06 -0.01   -0.18  0.09  0.10
       9   C                 0.01 -0.13  0.04   -0.03 -0.02  0.03   -0.01  0.02  0.07
      10   H                 0.20 -0.25  0.07    0.10 -0.16 -0.00    0.03 -0.18 -0.08
      11   H                 0.07 -0.08  0.01   -0.29  0.15 -0.19    0.25  0.17  0.03
      12   C                 0.04  0.04  0.01    0.06 -0.03 -0.03   -0.00 -0.01 -0.04
      13   H                 0.16  0.19 -0.02    0.19  0.15  0.18   -0.11 -0.16  0.11
      14   H                 0.08  0.04  0.02   -0.21 -0.03 -0.07    0.08  0.30 -0.12
Mode                                12                  13                  14
Irrep
Freq [cm^-1]                     1058.7188           1075.3305           1192.1741
Reduced mass [au]                   1.3854              1.8021              1.6101
Force const [Dyne/A]                0.9149              1.2278              1.3483
Char temp [K]                    1523.2606           1547.1612           1715.2731
Normal mode                   x     y     z       x     y     z       x     y     z
       0   C                -0.04 -0.01 -0.01    0.06 -0.08  0.07    0.05  0.04  0.02
       1   H                -0.08  0.01 -0.06    0.17 -0.09  0.23   -0.03  0.08 -0.10
       2   H                -0.02  0.00 -0.04    0.06 -0.19  0.23    0.09  0.00  0.07
       3   C                 0.07  0.04 -0.00   -0.08  0.01 -0.03   -0.05 -0.06  0.02
       4   H                 0.19  0.06  0.02   -0.12 -0.08 -0.00   -0.17 -0.03 -0.01
       5   H                 0.29  0.11 -0.01   -0.26 -0.06 -0.09    0.31  0.08  0.11
       6   C                -0.01 -0.08  0.03    0.04  0.01 -0.00   -0.01  0.08 -0.04
       7   H                 0.02 -0.15  0.10   -0.01  0.00 -0.02   -0.00  0.18 -0.10
       8   H                -0.05 -0.38  0.24    0.07  0.05 -0.06   -0.03 -0.30  0.18
       9   C                -0.07  0.02 -0.03   -0.05 -0.03 -0.00    0.07 -0.04  0.04
      10   H                -0.38  0.06 -0.20   -0.19 -0.06 -0.11   -0.33  0.01 -0.17
      11   H                -0.16  0.06 -0.09   -0.04  0.04 -0.05    0.24 -0.05  0.10
      12   C                 0.05  0.02  0.01    0.04  0.09 -0.04   -0.06 -0.02 -0.04
      13   H                 0.15  0.17  0.04    0.17  0.28 -0.07    0.07  0.17 -0.08
      14   H                 0.06  0.14 -0.03    0.13  0.18 -0.05   -0.05 -0.06 -0.03
Mode                                15                  16                  17
Irrep
Freq [cm^-1]                     1197.7007           1227.9853           1234.9068
Reduced mass [au]                   1.4813              1.5033              1.5022
Force const [Dyne/A]                1.2520              1.3356              1.3497
Char temp [K]                    1723.2246           1766.7975           1776.7559
Normal mode                   x     y     z       x     y     z       x     y     z
       0   C                 0.04 -0.04 -0.10   -0.01  0.02 -0.04   -0.03  0.03 -0.05
       1   H                 0.12  0.18 -0.00    0.22 -0.25  0.32    0.03 -0.05  0.05
       2   H                -0.15 -0.14  0.07   -0.14  0.14 -0.19    0.16 -0.19  0.24
       3   C                -0.01  0.03  0.07    0.01  0.03  0.06    0.08 -0.03 -0.03
       4   H                 0.25 -0.02  0.14   -0.13 -0.12  0.09    0.16  0.14 -0.08
       5   H                -0.18 -0.05 -0.11   -0.06 -0.01 -0.07   -0.34 -0.16  0.08
       6   C                -0.01 -0.00 -0.02   -0.01 -0.04 -0.07   -0.07  0.02  0.06
       7   H                 0.06  0.28 -0.16    0.15 -0.10  0.06   -0.17 -0.09  0.08
       8   H                -0.06 -0.17  0.13   -0.14  0.12  0.02    0.00  0.12 -0.09
       9   C                 0.03 -0.01 -0.02    0.00  0.06  0.08    0.05  0.03 -0.01
      10   H                 0.08  0.05  0.06   -0.08 -0.07 -0.08   -0.23  0.16 -0.08
      11   H                -0.24 -0.03 -0.09    0.07  0.19  0.01    0.22 -0.08  0.13
      12   C                -0.05  0.02  0.07    0.01 -0.07 -0.05   -0.03 -0.06  0.01
      13   H                 0.11  0.24 -0.18    0.21  0.21  0.07    0.17  0.21 -0.03
      14   H                -0.01 -0.25  0.16   -0.24 -0.15 -0.07    0.03  0.07 -0.02
Mode                                18                  19                  20
Irrep
Freq [cm^-1]                     1274.6682           1290.8010           1317.7355
Reduced mass [au]                   1.1344              1.3473              1.2544
Force const [Dyne/A]                1.0859              1.3226              1.2833
Char temp [K]                    1833.9637           1857.1752           1895.9279
Normal mode                   x     y     z       x     y     z       x     y     z
       0   C                -0.01 -0.01  0.00   -0.03  0.04 -0.05    0.05 -0.07  0.03
       1   H                 0.17 -0.24  0.29    0.13 -0.15  0.20   -0.08  0.16 -0.18
       2   H                -0.20  0.22 -0.29    0.12 -0.15  0.20   -0.20  0.15 -0.24
       3   C                -0.01  0.02  0.04   -0.06 -0.02 -0.00   -0.04  0.00 -0.03
       4   H                 0.24  0.04  0.09    0.18  0.06  0.01    0.43  0.16  0.00
       5   H                -0.19 -0.06 -0.03    0.29  0.11  0.01   -0.09 -0.02 -0.04
       6   C                -0.02  0.04  0.02   -0.00 -0.06  0.03   -0.00  0.02  0.04
       7   H                -0.08  0.24 -0.13    0.01  0.18 -0.11   -0.11 -0.13  0.08
       8   H                 0.00 -0.20  0.11    0.01  0.29 -0.16    0.04  0.11 -0.06
       9   C                 0.03 -0.05 -0.04    0.06 -0.01  0.03   -0.01 -0.00  0.03
      10   H                -0.12  0.05 -0.06   -0.28  0.06 -0.14   -0.17 -0.01 -0.08
      11   H                 0.11 -0.15  0.07   -0.18  0.03 -0.09    0.25  0.02  0.10
      12   C                 0.01 -0.00 -0.03    0.03  0.05 -0.01    0.02  0.04 -0.04
      13   H                -0.16 -0.25  0.06   -0.17 -0.24  0.03   -0.01  0.01 -0.01
      14   H                 0.18  0.31 -0.09   -0.11 -0.17  0.03   -0.29 -0.36  0.02
Mode                                21                  22                  23
Irrep
Freq [cm^-1]                     1343.5245           1346.2258           1347.6985
Reduced mass [au]                   1.4232              1.5866              1.5489
Force const [Dyne/A]                1.5136              1.6942              1.6575
Char temp [K]                    1933.0326           1936.9192           1939.0381
Normal mode                   x     y     z       x     y     z       x     y     z
       0   C                -0.01 -0.03  0.03   -0.04 -0.00 -0.03    0.03 -0.03  0.06
       1   H                -0.11  0.10 -0.13   -0.01 -0.04  0.03   -0.13  0.09 -0.18
       2   H                -0.01  0.03 -0.05    0.06 -0.14  0.14   -0.11  0.12 -0.14
       3   C                 0.07  0.06 -0.00    0.08  0.01  0.02    0.04  0.02 -0.01
       4   H                -0.39 -0.16 -0.01   -0.21 -0.09 -0.00   -0.11 -0.00 -0.04
       5   H                -0.09 -0.00 -0.07   -0.27 -0.12  0.04   -0.16 -0.05 -0.05
       6   C                -0.02 -0.10  0.05   -0.02  0.07 -0.05   -0.03 -0.01 -0.02
       7   H                 0.01  0.48 -0.28   -0.04 -0.18  0.10   -0.00 -0.10  0.05
       8   H                -0.03  0.10 -0.04   -0.08 -0.24  0.18   -0.09  0.16 -0.05
       9   C                -0.01  0.01 -0.03    0.01 -0.04  0.03    0.13 -0.02  0.06
      10   H                -0.14  0.07 -0.06   -0.09 -0.10 -0.07   -0.26  0.07 -0.12
      11   H                 0.23 -0.07  0.12   -0.05 -0.03 -0.01   -0.46  0.10 -0.22
      12   C                 0.02  0.02 -0.01    0.06  0.09 -0.01   -0.05 -0.00 -0.01
      13   H                -0.01 -0.02 -0.01   -0.20 -0.28  0.05   -0.08 -0.03 -0.07
      14   H                -0.11 -0.10 -0.01   -0.19 -0.29  0.06    0.11  0.17 -0.03
Mode                                24                  25                  26
Irrep
Freq [cm^-1]                     1455.4792           1464.2497           1469.8688
Reduced mass [au]                   1.0771              1.0889              1.1028
Force const [Dyne/A]                1.3444              1.3755              1.4037
Char temp [K]                    2094.1105           2106.7294           2114.8139
Normal mode                   x     y     z       x     y     z       x     y     z
       0   C                 0.03  0.02 -0.00   -0.00  0.01 -0.00    0.03  0.02 -0.00
       1   H                -0.12 -0.30 -0.15   -0.01 -0.04 -0.01   -0.10 -0.24 -0.15
       2   H                -0.31 -0.06  0.17   -0.02 -0.01  0.02   -0.26 -0.04  0.13
       3   C                 0.01 -0.02  0.04   -0.00  0.00 -0.01   -0.00  0.03 -0.05
       4   H                -0.13  0.34 -0.14    0.02 -0.09  0.03    0.12 -0.36  0.14
       5   H                 0.03 -0.05 -0.38    0.01  0.01  0.10   -0.04  0.06  0.40
       6   C                -0.02  0.00  0.00    0.06 -0.01 -0.01    0.01 -0.01  0.00
       7   H                 0.13  0.04  0.06   -0.45 -0.10 -0.22   -0.08 -0.00 -0.05
       8   H                 0.10 -0.08 -0.09   -0.33  0.20  0.34   -0.06  0.06  0.04
       9   C                -0.01 -0.03 -0.00   -0.01 -0.05 -0.01    0.01  0.04 -0.00
      10   H                -0.03  0.16  0.12   -0.04  0.32  0.27    0.04 -0.19 -0.17
      11   H                 0.10  0.15 -0.10    0.16  0.32 -0.22   -0.11 -0.20  0.13
      12   C                -0.01  0.01 -0.03   -0.00 -0.00 -0.00   -0.03  0.01 -0.03
      13   H                 0.01  0.03  0.35    0.00 -0.00  0.05    0.02  0.07  0.34
      14   H                 0.27 -0.19  0.09    0.05 -0.02  0.01    0.29 -0.18  0.09
Mode                                27                  28                  29
Irrep
Freq [cm^-1]                     1470.5657           1499.3076           3058.5285
Reduced mass [au]                   1.1044              1.1203              1.0725
Force const [Dyne/A]                1.4072              1.4838              5.9111
Char temp [K]                    2115.8166           2157.1698           4400.5416
Normal mode                   x     y     z       x     y     z       x     y     z
       0   C                -0.03 -0.03 -0.00    0.03  0.03 -0.00    0.01  0.00 -0.00
       1   H                 0.11  0.29  0.15   -0.11 -0.29 -0.15   -0.07  0.01  0.05
       2   H                 0.29  0.06 -0.17   -0.30 -0.05  0.16   -0.00 -0.04 -0.03
       3   C                 0.00  0.02 -0.02   -0.00  0.02 -0.03   -0.00  0.00  0.03
       4   H                 0.06 -0.22  0.08    0.08 -0.24  0.10    0.07 -0.13 -0.31
       5   H                -0.05  0.03  0.23   -0.03  0.04  0.26   -0.03  0.08 -0.00
       6   C                -0.04  0.01 -0.00   -0.04  0.00  0.00    0.04 -0.02 -0.04
       7   H                 0.27  0.05  0.13    0.23  0.05  0.11   -0.31  0.36  0.59
       8   H                 0.17 -0.13 -0.19    0.15 -0.12 -0.17   -0.17 -0.08 -0.16
       9   C                 0.00 -0.04  0.00   -0.01 -0.04  0.00   -0.01  0.02  0.02
      10   H                -0.07  0.23  0.17   -0.04  0.19  0.17   -0.02 -0.02  0.03
      11   H                 0.10  0.23 -0.17    0.11  0.20 -0.14    0.10 -0.23 -0.29
      12   C                -0.02  0.01 -0.03    0.03 -0.01  0.03   -0.00 -0.00 -0.00
      13   H                 0.00  0.03  0.31   -0.01 -0.06 -0.33    0.00  0.00  0.00
      14   H                 0.25 -0.17  0.08   -0.28  0.17 -0.08   -0.00  0.01  0.03
Mode                                30                  31                  32
Irrep
Freq [cm^-1]                     3066.4431           3076.7626           3083.4245
Reduced mass [au]                   1.0672              1.0638              1.0616
Force const [Dyne/A]                5.9126              5.9331              5.9469
Char temp [K]                    4411.9289           4426.7764           4436.3614
Normal mode                   x     y     z       x     y     z       x     y     z
       0   C                -0.01 -0.00  0.01    0.05  0.04  0.00    0.01  0.00 -0.01
       1   H                 0.10 -0.01 -0.07   -0.46  0.05  0.34   -0.13  0.01  0.10
       2   H                 0.00  0.02  0.01   -0.06 -0.55 -0.39   -0.01 -0.06 -0.05
       3   C                 0.00  0.01 -0.05    0.00 -0.01 -0.01    0.00 -0.01  0.03
       4   H                -0.11  0.21  0.51   -0.02  0.03  0.08    0.07 -0.13 -0.31
       5   H                 0.10 -0.29  0.02   -0.01  0.05 -0.01   -0.10  0.27 -0.02
       6   C                -0.00 -0.00  0.00   -0.00  0.00  0.00   -0.04 -0.00 -0.00
       7   H                 0.01 -0.01 -0.02    0.03 -0.04 -0.06    0.11 -0.13 -0.21
       8   H                 0.02  0.01  0.01    0.01  0.00  0.01    0.31  0.14  0.26
       9   C                -0.00  0.04  0.02   -0.00 -0.00  0.00    0.01  0.04  0.00
      10   H                -0.12 -0.14  0.19    0.03  0.04 -0.05   -0.18 -0.22  0.28
      11   H                 0.16 -0.36 -0.48    0.00 -0.00 -0.00    0.10 -0.21 -0.29
      12   C                 0.00 -0.00 -0.02   -0.01  0.00 -0.02    0.01 -0.01  0.02
      13   H                 0.01 -0.01 -0.01    0.16 -0.11 -0.01   -0.21  0.16  0.01
      14   H                -0.03  0.05  0.18   -0.06  0.09  0.29    0.05 -0.08 -0.25
Mode                                33                  34                  35
Irrep
Freq [cm^-1]                     3091.6525           3118.2743           3127.8201
Reduced mass [au]                   1.0690              1.1036              1.0990
Force const [Dyne/A]                6.0200              6.3227              6.3348
Char temp [K]                    4448.1996           4486.5025           4500.2367
Normal mode                   x     y     z       x     y     z       x     y     z
       0   C                 0.02  0.01 -0.00    0.03 -0.03 -0.05    0.00 -0.02 -0.01
       1   H                -0.19  0.02  0.14   -0.43  0.03  0.31   -0.09  0.01  0.06
       2   H                -0.01 -0.17 -0.12    0.05  0.36  0.25    0.02  0.17  0.12
       3   C                -0.00  0.01 -0.03   -0.02  0.05  0.01    0.02 -0.05 -0.01
       4   H                -0.06  0.12  0.29    0.04 -0.07 -0.20   -0.04  0.07  0.21
       5   H                 0.07 -0.19  0.02    0.17 -0.47  0.05   -0.19  0.54 -0.06
       6   C                 0.02 -0.00 -0.00   -0.01  0.00  0.00    0.02  0.01  0.02
       7   H                -0.07  0.08  0.14    0.02 -0.02 -0.04    0.03 -0.03 -0.05
       8   H                -0.16 -0.07 -0.14    0.04  0.02  0.04   -0.23 -0.09 -0.19
       9   C                 0.01 -0.00 -0.02    0.01  0.01 -0.01    0.01  0.02 -0.02
      10   H                -0.07 -0.10  0.11   -0.07 -0.08  0.10   -0.14 -0.18  0.21
      11   H                -0.05  0.11  0.13   -0.00  0.01  0.01    0.00  0.00 -0.00
      12   C                 0.01 -0.00  0.05   -0.02  0.02  0.00   -0.04  0.03  0.01
      13   H                -0.24  0.18  0.02    0.25 -0.18 -0.00    0.41 -0.29 -0.00
      14   H                 0.12 -0.20 -0.64    0.00 -0.01 -0.03    0.02 -0.04 -0.14
Mode                                36                  37                  38
Irrep
Freq [cm^-1]                     3135.7464           3139.1708           3159.4030
Reduced mass [au]                   1.1024              1.1019              1.1061
Force const [Dyne/A]                6.3869              6.3978              6.5053
Char temp [K]                    4511.6409           4516.5679           4545.6775
Normal mode                   x     y     z       x     y     z       x     y     z
       0   C                -0.02  0.02  0.03   -0.01  0.02  0.02   -0.01  0.01  0.01
       1   H                 0.29 -0.02 -0.20    0.18 -0.01 -0.12    0.11 -0.01 -0.08
       2   H                -0.03 -0.25 -0.17   -0.03 -0.18 -0.12   -0.02 -0.13 -0.09
       3   C                -0.01  0.02  0.00   -0.01  0.03  0.03   -0.00  0.01  0.01
       4   H                 0.01 -0.02 -0.06    0.07 -0.13 -0.33    0.03 -0.05 -0.13
       5   H                 0.07 -0.19  0.02    0.08 -0.21  0.03    0.04 -0.10  0.01
       6   C                -0.02 -0.02 -0.03    0.03  0.03  0.05   -0.00  0.01  0.02
       7   H                -0.10  0.11  0.18    0.15 -0.16 -0.26    0.09 -0.11 -0.17
       8   H                 0.29  0.12  0.23   -0.45 -0.18 -0.36   -0.05 -0.02 -0.04
       9   C                 0.02  0.01 -0.04    0.01  0.02 -0.02   -0.03 -0.01  0.05
      10   H                -0.17 -0.21  0.26   -0.17 -0.21  0.25    0.23  0.29 -0.35
      11   H                -0.06  0.14  0.18    0.01 -0.00 -0.01    0.10 -0.23 -0.29
      12   C                -0.03  0.03  0.01    0.00 -0.00 -0.01   -0.03  0.03  0.04
      13   H                 0.38 -0.27 -0.00   -0.04  0.03 -0.00    0.31 -0.22  0.00
      14   H                 0.02 -0.03 -0.11   -0.02  0.03  0.10    0.07 -0.13 -0.44
