#INFO: **** input file is /mmhome/boittier/home/mmml_tutorial/programmatic/05_pyscf_mp2_programmatic.py ****
#!/usr/bin/env python
"""
Example: MP2 energy + gradient via programmatic interface (section 02 – QM/DFT).

Run from project root: uv run python examples/mmml_tutorial/programmatic/05_pyscf_mp2_programmatic.py
"""

import os
import sys
from pathlib import Path

sys.path.insert(0, str(Path(__file__).resolve().parents[3]))

from mmml.interfaces.pyscf4gpuInterface.calcs import compute_mp2, save_pyscf_results


def main():
    script_dir = Path(__file__).resolve().parent
    os.chdir(script_dir)
    output_path = "out/05_results"

    mol_str = "O 0 0 0; H 0.96 0 0; H -0.24 0.93 0"

    print("=== 05: MP2 programmatic (def2-SVP) ===")
    output = compute_mp2(
        mol_str=mol_str,
        basis="def2-SVP",
        energy=True,
        gradient=True,
    )
    print(f"MP2 energy: {output['energy']} Hartree")
    print(f"HF energy:  {output['energy_hf']} Hartree")
    print(f"Correlation: {output['energy_corr']} Hartree")

    save_pyscf_results(output_path, output)
    print(f"Output: {output_path}.npz and .h5")


if __name__ == "__main__":
    main()
#INFO: ******************** input file end ********************


System: uname_result(system='Linux', node='gpu08', release='5.15.0-118-generic', version='#128-Ubuntu SMP Fri Jul 5 09:28:59 UTC 2024', machine='x86_64')  Threads 32
Python 3.13.12 | packaged by conda-forge | (main, Feb  5 2026, 05:53:46) [GCC 14.3.0]
numpy 2.3.5  scipy 1.17.0  h5py 3.15.1
Date: Tue Mar 17 13:29:35 2026
PySCF version 2.12.1
PySCF path  /mmhome/boittier/home/mmml/.venv/lib/python3.13/site-packages/pyscf/__init__.py
CUDA Environment
    CuPy 14.0.0
    CUDA Path /mmhome/boittier/home/mmml/.venv/lib/python3.13/site-packages/nvidia/cu13
    CUDA Build Version 13000
    CUDA Driver Version 13000
    CUDA Runtime Version 13000
CUDA toolkit
    cuSolver (12, 0, 9)
    cuBLAS 130201
    cuTENSOR None
Device info
    Device name b'NVIDIA GeForce RTX 5090'
    Device global memory 31.36 GB
    CuPy memory fraction 0.9
    Num. Devices 2
GPU4PySCF 1.6.0
GPU4PySCF path  /mmhome/boittier/home/mmml/.venv/lib/python3.13/site-packages/gpu4pyscf

[CONFIG] conf_file None
[INPUT] verbose = 6
[INPUT] max_memory = 4000 
[INPUT] num. atoms = 3
[INPUT] num. electrons = 10
[INPUT] charge = 0
[INPUT] spin (= nelec alpha-beta = 2S) = 0
[INPUT] symmetry False subgroup None
[INPUT] Mole.unit = angstrom
[INPUT] Symbol           X                Y                Z      unit          X                Y                Z       unit  Magmom
[INPUT]  1 O      0.000000000000   0.000000000000   0.000000000000 AA    0.000000000000   0.000000000000   0.000000000000 Bohr   0.0
[INPUT]  2 H      0.960000000000   0.000000000000   0.000000000000 AA    1.814137079582   0.000000000000   0.000000000000 Bohr   0.0
[INPUT]  3 H     -0.240000000000   0.930000000000   0.000000000000 AA   -0.453534269896   1.757445295846   0.000000000000 Bohr   0.0
[INPUT] ---------------- BASIS SET ---------------- 
[INPUT] l, kappa, [nprim/nctr], expnt,             c_1 c_2 ...
[INPUT] O
[INPUT] 0    0    [5    /1   ]  2266.1767785      -0.0053431809926
                                340.87010191      -0.03989003923
                                77.363135167      -0.17853911985
                                21.47964494       -0.46427684959
                                6.6589433124      -0.44309745172
[INPUT] 0    0    [1    /1   ]  0.80975975668        1
[INPUT] 0    0    [1    /1   ]  0.25530772234        1
[INPUT] 1    0    [3    /1   ]  17.721504317      0.043394573193
                                3.863550544       0.23094120765
                                1.0480920883      0.51375311064
[INPUT] 1    0    [1    /1   ]  0.27641544411        1
[INPUT] 2    0    [1    /1   ]  1.2                  1
[INPUT] H
[INPUT] 0    0    [3    /1   ]  13.010701         0.019682158
                                1.9622572         0.13796524
                                0.44453796        0.47831935
[INPUT] 0    0    [1    /1   ]  0.12194962           1
[INPUT] 1    0    [1    /1   ]  0.8                  1

nuclear repulsion = 9.16602655752123
number of shells = 12
number of NR pGTOs = 38
number of NR cGTOs = 24
basis = def2-SVP
ecp = {}
CPU time:         5.15


******** <class 'gpu4pyscf.df.df_jk.DFRHF'> ********
method = DFRHF
initial guess = minao
damping factor = None
level_shift factor = None
DIIS = <class 'gpu4pyscf.scf.diis.CDIIS'>
diis_start_cycle = 1
diis_space = 8
diis_damp = 0
SCF conv_tol = 1e-09
SCF conv_tol_grad = None
SCF max_cycles = 50
direct_scf = False
Set gradient conv threshold to 3.16228e-05
    CPU time for generating initial guess                                0.36 sec, wall time      0.22 sec, GPU time    221.05 ms
Number of shells for each [l, nprim] group
    [0 5] : 1
    [0 3] : 2
    [0 1] : 4
    [1 3] : 1
    [1 1] : 3
    [2 1] : 1
sp_blocks = 21, ksh_blocks = 1, shm_size = 59512 B
    CPU time for processing contract_int3c2e_auxvec                      0.00 sec, wall time      0.02 sec, GPU time     19.44 ms
Number of shells for each [l, nprim] group
    [0 5] : 1
    [0 3] : 2
    [0 1] : 4
    [1 3] : 1
    [1 1] : 3
    [2 1] : 1
Number of shells for each [l, nprim] group
    [0 5] : 1
    [0 3] : 2
    [0 1] : 4
    [1 3] : 1
    [1 1] : 3
    [2 1] : 1
    CPU time for hcore                                                   0.06 sec, wall time      1.32 sec, GPU time   1323.80 ms
Build CDERI ...
Psi4 predefined JKFIT basis set def2-svp-jkfit for HF
Default auxbasis def2-svp-jkfit is applied universally
num shells = 37, num cGTOs = 113
    CPU time for 2c2e                                                    0.01 sec, wall time      0.01 sec, GPU time      8.64 ms
Number of shells for each [l, nctr] group
    [0 1] : 4
    [0 3] : 2
    [0 5] : 1
    [1 1] : 3
    [1 3] : 1
    [2 1] : 1
Number of shells for each [l, nctr] group
    [0 1] : 11
    [0 3] : 2
    [0 5] : 1
    [1 1] : 11
    [1 3] : 1
    [2 1] : 7
    [2 3] : 1
    [3 1] : 2
    [4 1] : 1
    CPU time for Initialize q_cond                                       0.11 sec, wall time      0.00 sec, GPU time      4.39 ms
    CPU time for Get AO pairing                                          0.00 sec, wall time      0.00 sec, GPU time      0.27 ms
    CPU time for AO indices                                              0.00 sec, wall time      0.00 sec, GPU time      0.07 ms
    CPU time for Aux AO indices                                          0.00 sec, wall time      0.00 sec, GPU time      0.08 ms
    CPU time for Get AO pairs                                            0.00 sec, wall time      0.00 sec, GPU time      0.36 ms
    CPU time for prepare intopt                                          0.25 sec, wall time      0.02 sec, GPU time     19.20 ms
size of aux basis 113
Saving CDERI on GPU
CDERI size 0.000 GB on Device 0
CDERI size 0.000 GB on Device 1
    CPU time for Initialize GPU cache on Device 0                        0.00 sec, wall time      0.00 sec, GPU time      0.64 ms
    CPU time for Initialize GPU cache on Device 1                        0.00 sec, wall time      0.00 sec, GPU time      0.17 ms
    CPU time for solve 5 / 21 on Device 0                                0.06 sec, wall time      0.06 sec, GPU time     61.14 ms
    CPU time for transfer data for 5 / 21 on Device 0                    0.00 sec, wall time      0.00 sec, GPU time      0.25 ms
    CPU time for solve 4 / 21 on Device 1                                0.07 sec, wall time      0.06 sec, GPU time     62.80 ms
    CPU time for solve 2 / 21 on Device 0                                0.00 sec, wall time      0.00 sec, GPU time      2.14 ms
    CPU time for transfer data for 2 / 21 on Device 0                    0.00 sec, wall time      0.00 sec, GPU time      0.28 ms
    CPU time for transfer data for 4 / 21 on Device 1                    0.00 sec, wall time      0.00 sec, GPU time      0.55 ms
    CPU time for solve 3 / 21 on Device 0                                0.00 sec, wall time      0.00 sec, GPU time      0.89 ms
    CPU time for transfer data for 3 / 21 on Device 0                    0.00 sec, wall time      0.00 sec, GPU time      0.12 ms
    CPU time for solve 12 / 21 on Device 1                               0.00 sec, wall time      0.00 sec, GPU time      1.92 ms
    CPU time for transfer data for 12 / 21 on Device 1                   0.00 sec, wall time      0.00 sec, GPU time      0.45 ms
    CPU time for solve 14 / 21 on Device 0                               0.00 sec, wall time      0.00 sec, GPU time      2.18 ms
    CPU time for transfer data for 14 / 21 on Device 0                   0.00 sec, wall time      0.00 sec, GPU time      0.28 ms
    CPU time for solve 17 / 21 on Device 1                               0.00 sec, wall time      0.00 sec, GPU time      1.60 ms
    CPU time for solve 1 / 21 on Device 0                                0.00 sec, wall time      0.00 sec, GPU time      0.78 ms
    CPU time for transfer data for 17 / 21 on Device 1                   0.00 sec, wall time      0.00 sec, GPU time      0.21 ms
    CPU time for transfer data for 1 / 21 on Device 0                    0.00 sec, wall time      0.00 sec, GPU time      0.20 ms
    CPU time for solve 16 / 21 on Device 0                               0.00 sec, wall time      0.00 sec, GPU time      1.12 ms
    CPU time for transfer data for 16 / 21 on Device 0                   0.00 sec, wall time      0.00 sec, GPU time      0.16 ms
    CPU time for solve 11 / 21 on Device 1                               0.00 sec, wall time      0.00 sec, GPU time      1.55 ms
    CPU time for transfer data for 11 / 21 on Device 1                   0.00 sec, wall time      0.00 sec, GPU time      0.15 ms
    CPU time for solve 10 / 21 on Device 0                               0.00 sec, wall time      0.00 sec, GPU time      1.03 ms
    CPU time for transfer data for 10 / 21 on Device 0                   0.00 sec, wall time      0.00 sec, GPU time      0.13 ms
    CPU time for solve 8 / 21 on Device 1                                0.00 sec, wall time      0.00 sec, GPU time      1.07 ms
    CPU time for transfer data for 8 / 21 on Device 1                    0.00 sec, wall time      0.00 sec, GPU time      0.17 ms
    CPU time for solve 20 / 21 on Device 0                               0.00 sec, wall time      0.00 sec, GPU time      1.15 ms
    CPU time for solve 0 / 21 on Device 1                                0.00 sec, wall time      0.00 sec, GPU time      0.73 ms
    CPU time for transfer data for 20 / 21 on Device 0                   0.00 sec, wall time      0.00 sec, GPU time      0.19 ms
    CPU time for transfer data for 0 / 21 on Device 1                    0.00 sec, wall time      0.00 sec, GPU time      0.17 ms
    CPU time for solve 15 / 21 on Device 0                               0.00 sec, wall time      0.00 sec, GPU time      0.82 ms
    CPU time for transfer data for 15 / 21 on Device 0                   0.00 sec, wall time      0.00 sec, GPU time      0.29 ms
    CPU time for solve 19 / 21 on Device 1                               0.00 sec, wall time      0.00 sec, GPU time      1.44 ms
    CPU time for transfer data for 19 / 21 on Device 1                   0.00 sec, wall time      0.00 sec, GPU time      0.18 ms
    CPU time for solve 6 / 21 on Device 0                                0.00 sec, wall time      0.00 sec, GPU time      0.86 ms
    CPU time for transfer data for 6 / 21 on Device 0                    0.00 sec, wall time      0.00 sec, GPU time      0.15 ms
    CPU time for solve 7 / 21 on Device 1                                0.00 sec, wall time      0.00 sec, GPU time      1.27 ms
    CPU time for transfer data for 7 / 21 on Device 1                    0.00 sec, wall time      0.00 sec, GPU time      0.19 ms
    CPU time for solve 18 / 21 on Device 0                               0.00 sec, wall time      0.00 sec, GPU time      1.31 ms
    CPU time for transfer data for 18 / 21 on Device 0                   0.00 sec, wall time      0.00 sec, GPU time      0.19 ms
    CPU time for solve 13 / 21 on Device 1                               0.00 sec, wall time      0.00 sec, GPU time      1.39 ms
    CPU time for transfer data for 13 / 21 on Device 1                   0.00 sec, wall time      0.00 sec, GPU time      0.12 ms
    CPU time for solve 9 / 21 on Device 1                                0.00 sec, wall time      0.00 sec, GPU time      0.71 ms
    CPU time for transfer data for 9 / 21 on Device 1                    0.00 sec, wall time      0.00 sec, GPU time      0.10 ms
    CPU time for cholesky_eri                                            0.54 sec, wall time      0.18 sec, GPU time    184.83 ms
    CPU time for init jk                                                 0.55 sec, wall time      0.19 sec, GPU time    193.51 ms
30.302 GB memory available on Device 0, block size = 256
33.131 GB memory available on Device 1, block size = 256
    CPU time for vj and vk on Device 0                                   0.01 sec, wall time      0.01 sec, GPU time     14.56 ms
    CPU time for vj and vk on Device 1                                   0.01 sec, wall time      0.01 sec, GPU time     14.28 ms
    CPU time for vj and vk                                               0.02 sec, wall time      0.02 sec, GPU time     18.56 ms
E1 = -121.48263212565021  E_coul = 36.51346141600512
init E= -75.8031441521238
cond(S) = 101.53217449290376
    CPU time for SCF initialization                                      1.00 sec, wall time      1.78 sec, GPU time   1778.72 ms
    CPU time for DIIS                                                    0.00 sec, wall time      0.00 sec, GPU time      0.03 ms
    CPU time for eig                                                     0.00 sec, wall time      0.00 sec, GPU time      0.63 ms
  HOMO = -0.47898044112589  LUMO = 0.0989419915006628
30.302 GB memory available on Device 0, block size = 256
33.131 GB memory available on Device 1, block size = 256
    CPU time for vj and vk on Device 0                                   0.01 sec, wall time      0.01 sec, GPU time      6.18 ms
    CPU time for vj and vk on Device 1                                   0.01 sec, wall time      0.01 sec, GPU time      6.27 ms
    CPU time for vj and vk                                               0.01 sec, wall time      0.01 sec, GPU time      8.23 ms
    CPU time for veff                                                    0.03 sec, wall time      0.02 sec, GPU time     24.58 ms
E1 = -124.02466174017154  E_coul = 38.937301733029
    CPU time for cycle=1                                                 0.03 sec, wall time      0.03 sec, GPU time     28.63 ms
cycle= 1 E= -75.9213334496213  delta_E= -0.118  |g|= 0.45  |ddm|= 1.33
diis-c [-0.20275109  1.        ]
    CPU time for DIIS                                                    0.00 sec, wall time      0.00 sec, GPU time      3.38 ms
    CPU time for eig                                                     0.00 sec, wall time      0.00 sec, GPU time      0.57 ms
  HOMO = -0.413063154940019  LUMO = 0.175718506006951
30.302 GB memory available on Device 0, block size = 256
33.131 GB memory available on Device 1, block size = 256
    CPU time for vj and vk on Device 0                                   0.00 sec, wall time      0.00 sec, GPU time      1.90 ms
    CPU time for vj and vk on Device 1                                   0.00 sec, wall time      0.00 sec, GPU time      1.76 ms
    CPU time for vj and vk                                               0.00 sec, wall time      0.00 sec, GPU time      2.95 ms
    CPU time for veff                                                    0.00 sec, wall time      0.00 sec, GPU time      3.48 ms
E1 = -122.32047308160716  E_coul = 37.20318228660533
    CPU time for cycle=2                                                 0.01 sec, wall time      0.01 sec, GPU time      8.29 ms
cycle= 2 E= -75.9512642374806  delta_E= -0.0299  |g|= 0.233  |ddm|= 0.42
diis-c [-0.00720952  0.32882665  0.67117335]
    CPU time for DIIS                                                    0.00 sec, wall time      0.00 sec, GPU time      0.48 ms
    CPU time for eig                                                     0.00 sec, wall time      0.00 sec, GPU time      0.52 ms
  HOMO = -0.501880059341821  LUMO = 0.171325328499289
30.302 GB memory available on Device 0, block size = 256
33.131 GB memory available on Device 1, block size = 256
    CPU time for vj and vk on Device 0                                   0.00 sec, wall time      0.00 sec, GPU time      2.50 ms
    CPU time for vj and vk on Device 1                                   0.00 sec, wall time      0.00 sec, GPU time      2.40 ms
    CPU time for vj and vk                                               0.00 sec, wall time      0.00 sec, GPU time      3.71 ms
    CPU time for veff                                                    0.01 sec, wall time      0.00 sec, GPU time      4.18 ms
E1 = -123.03669840941537  E_coul = 37.91007938266708
    CPU time for cycle=3                                                 0.01 sec, wall time      0.01 sec, GPU time      5.63 ms
cycle= 3 E= -75.9605924692271  delta_E= -0.00933  |g|= 0.0244  |ddm|= 0.147
diis-c [-4.33686579e-04 -2.28341407e-02  1.26261395e-02  1.01020800e+00]
    CPU time for DIIS                                                    0.00 sec, wall time      0.00 sec, GPU time      0.40 ms
    CPU time for eig                                                     0.00 sec, wall time      0.00 sec, GPU time      0.52 ms
  HOMO = -0.495673059356036  LUMO = 0.175891836834767
30.302 GB memory available on Device 0, block size = 256
33.131 GB memory available on Device 1, block size = 256
    CPU time for vj and vk on Device 0                                   0.00 sec, wall time      0.00 sec, GPU time      2.17 ms
    CPU time for vj and vk on Device 1                                   0.00 sec, wall time      0.00 sec, GPU time      1.98 ms
    CPU time for vj and vk                                               0.00 sec, wall time      0.00 sec, GPU time      3.34 ms
    CPU time for veff                                                    0.00 sec, wall time      0.00 sec, GPU time      3.80 ms
E1 = -122.98675387982927  E_coul = 37.859960307468086
    CPU time for cycle=4                                                 0.01 sec, wall time      0.01 sec, GPU time      5.52 ms
cycle= 4 E= -75.9607670148399  delta_E= -0.000175  |g|= 0.00613  |ddm|= 0.0197
diis-c [-1.14432020e-05 -1.22635724e-02 -4.00149855e-02 -1.37013633e-01
  1.18929219e+00]
    CPU time for DIIS                                                    0.00 sec, wall time      0.00 sec, GPU time      0.42 ms
    CPU time for eig                                                     0.00 sec, wall time      0.00 sec, GPU time      0.51 ms
  HOMO = -0.497467960845047  LUMO = 0.175846225521428
30.302 GB memory available on Device 0, block size = 256
33.131 GB memory available on Device 1, block size = 256
    CPU time for vj and vk on Device 0                                   0.00 sec, wall time      0.00 sec, GPU time      1.89 ms
    CPU time for vj and vk on Device 1                                   0.00 sec, wall time      0.00 sec, GPU time      1.69 ms
    CPU time for vj and vk                                               0.00 sec, wall time      0.00 sec, GPU time      3.12 ms
    CPU time for veff                                                    0.00 sec, wall time      0.00 sec, GPU time      3.57 ms
E1 = -122.99121142123737  E_coul = 37.864402492134616
    CPU time for cycle=5                                                 0.01 sec, wall time      0.01 sec, GPU time      5.17 ms
cycle= 5 E= -75.9607823715815  delta_E= -1.54e-05  |g|= 0.000975  |ddm|= 0.0072
diis-c [-2.60736909e-07  3.00303743e-03  7.68631775e-03  1.69877510e-02
 -3.00240105e-01  1.27256300e+00]
    CPU time for DIIS                                                    0.00 sec, wall time      0.00 sec, GPU time      0.46 ms
    CPU time for eig                                                     0.00 sec, wall time      0.00 sec, GPU time      0.51 ms
  HOMO = -0.497818966084263  LUMO = 0.175775749497554
30.302 GB memory available on Device 0, block size = 256
33.131 GB memory available on Device 1, block size = 256
    CPU time for vj and vk on Device 0                                   0.00 sec, wall time      0.00 sec, GPU time      2.30 ms
    CPU time for vj and vk on Device 1                                   0.00 sec, wall time      0.00 sec, GPU time      2.11 ms
    CPU time for vj and vk                                               0.00 sec, wall time      0.00 sec, GPU time      3.49 ms
    CPU time for veff                                                    0.00 sec, wall time      0.00 sec, GPU time      3.90 ms
E1 = -122.9912494140071  E_coul = 37.86444000986104
    CPU time for cycle=6                                                 0.01 sec, wall time      0.01 sec, GPU time      5.31 ms
cycle= 6 E= -75.9607828466248  delta_E= -4.75e-07  |g|= 0.000153  |ddm|= 0.00136
diis-c [-3.03873454e-09 -7.19874631e-04 -1.91888361e-03 -4.73072185e-03
  7.98110187e-02 -4.26038490e-01  1.35359695e+00]
    CPU time for DIIS                                                    0.00 sec, wall time      0.00 sec, GPU time      0.50 ms
    CPU time for eig                                                     0.00 sec, wall time      0.00 sec, GPU time      0.51 ms
  HOMO = -0.497871218266868  LUMO = 0.175770752289219
33.131 GB memory available on Device 1, block size = 256
30.302 GB memory available on Device 0, block size = 256
    CPU time for vj and vk on Device 1                                   0.00 sec, wall time      0.00 sec, GPU time      2.08 ms
    CPU time for vj and vk on Device 0                                   0.00 sec, wall time      0.00 sec, GPU time      2.37 ms
    CPU time for vj and vk                                               0.00 sec, wall time      0.00 sec, GPU time      3.56 ms
    CPU time for veff                                                    0.01 sec, wall time      0.00 sec, GPU time      4.01 ms
E1 = -122.99124116398372  E_coul = 37.86443174750036
    CPU time for cycle=7                                                 0.01 sec, wall time      0.01 sec, GPU time      5.65 ms
cycle= 7 E= -75.9607828589621  delta_E= -1.23e-08  |g|= 1.57e-05  |ddm|= 0.000258
diis-c [-9.38774509e-11  1.14724268e-04  3.36913863e-04  8.26837611e-04
 -1.31476054e-02  7.27921471e-02 -2.86403054e-01  1.22548004e+00]
    CPU time for DIIS                                                    0.00 sec, wall time      0.00 sec, GPU time      0.54 ms
    CPU time for eig                                                     0.00 sec, wall time      0.00 sec, GPU time      0.51 ms
  HOMO = -0.497869393441066  LUMO = 0.175769912705211
30.302 GB memory available on Device 0, block size = 256
33.131 GB memory available on Device 1, block size = 256
    CPU time for vj and vk on Device 0                                   0.00 sec, wall time      0.00 sec, GPU time      1.73 ms
    CPU time for vj and vk on Device 1                                   0.00 sec, wall time      0.00 sec, GPU time      1.60 ms
    CPU time for vj and vk                                               0.00 sec, wall time      0.00 sec, GPU time      2.93 ms
    CPU time for veff                                                    0.00 sec, wall time      0.00 sec, GPU time      3.39 ms
E1 = -122.9912372820995  E_coul = 37.864427865467206
    CPU time for cycle=8                                                 0.01 sec, wall time      0.01 sec, GPU time      5.03 ms
cycle= 8 E= -75.9607828591111  delta_E= -1.49e-10  |g|= 4.08e-06  |ddm|= 2.78e-05
    CPU time for SCF                                                     1.07 sec, wall time      1.85 sec, GPU time   1849.57 ms
converged SCF energy = -75.9607828591111
Psi4 predefined RIFIT basis set def2-svp-ri for mp2fit
Default auxbasis def2-svp-ri is applied universally
num shells = 28, num cGTOs = 76
30.302 GB memory available on Device 0, block size = 256
33.131 GB memory available on Device 1, block size = 256
    CPU time for vj and vk on Device 0                                   0.00 sec, wall time      0.00 sec, GPU time      1.89 ms
    CPU time for vj and vk on Device 1                                   0.00 sec, wall time      0.00 sec, GPU time      1.81 ms
    CPU time for vj and vk                                               0.00 sec, wall time      0.00 sec, GPU time      3.12 ms
Number of shells for each [l, nprim] group
    [0 5] : 1
    [0 3] : 2
    [0 1] : 4
    [1 3] : 1
    [1 1] : 3
    [2 1] : 1
sp_blocks = 21, ksh_blocks = 1, shm_size = 59512 B
    CPU time for processing contract_int3c2e_auxvec                      0.00 sec, wall time      0.00 sec, GPU time      0.82 ms
Number of shells for each [l, nprim] group
    [0 5] : 1
    [0 3] : 2
    [0 1] : 4
    [1 3] : 1
    [1 1] : 3
    [2 1] : 1
E1 = -122.9912372820995  E_coul = 37.864427865467206
    CPU time for ehf in DFMP2                                            0.01 sec, wall time      0.01 sec, GPU time     13.62 ms
Number of shells for each [l, nprim] group
    [0 5] : 1
    [0 3] : 2
    [0 1] : 4
    [1 3] : 1
    [1 1] : 3
    [2 1] : 1
Number of shells for each [l, nprim] group
    [0 3] : 1
    [0 2] : 2
    [0 1] : 9
    [1 2] : 3
    [1 1] : 6
    [2 2] : 3
    [2 1] : 3
    [3 3] : 1
    CPU time for in dfmp2_kernel_one_gpu, build intopt                   0.00 sec, wall time      0.00 sec, GPU time      1.09 ms
Number of shells for each [l, nprim] group
    [0 3] : 1
    [0 2] : 2
    [0 1] : 9
    [1 2] : 3
    [1 1] : 6
    [2 2] : 3
    [2 1] : 3
    [3 3] : 1
int2c2e_kernel, nimgs = 1
j2c decomposition by Cholesky decomposition
    CPU time for get_j2c_decomp by cd                                    0.02 sec, wall time      0.02 sec, GPU time     21.47 ms
    CPU time for in dfmp2_kernel_one_gpu, build j2c and decompose        0.03 sec, wall time      0.03 sec, GPU time     32.82 ms
Estimation for j3c batch: aux_batch_size=2636376, batch_ov_size=43361463
sp_batches = 1, ksh_batches = 1
    CPU time for prepare for j3c_ovl_cart_bdiv                           0.01 sec, wall time      0.02 sec, GPU time     23.49 ms
    CPU time for compute int3c2e for aux batch 0/1                       0.00 sec, wall time      0.00 sec, GPU time      2.18 ms
    CPU time for decompress int3c2e for aux batch 0/1                    0.00 sec, wall time      0.00 sec, GPU time      0.10 ms
    CPU time for contract for aux batch 0/1, set 0/1                     0.00 sec, wall time      0.00 sec, GPU time      0.29 ms
    CPU time for get_j3c_ovl_cart_bdiv_gpu                               0.01 sec, wall time      0.03 sec, GPU time     26.09 ms
    CPU time for sph2cart_j3c_ovl_bdiv                                   0.00 sec, wall time      0.00 sec, GPU time      0.31 ms
    CPU time for decompose_j3c at device 0                               0.00 sec, wall time      0.00 sec, GPU time      0.14 ms
    CPU time for in dfmp2_kernel_one_gpu, build cderi_ovl                0.02 sec, wall time      0.03 sec, GPU time     26.93 ms
    CPU time for get_dfmp2_energy_pair_intra at device 0                 0.00 sec, wall time      0.01 sec, GPU time      6.41 ms
    CPU time for in dfmp2_kernel_one_gpu, mp2 occ pair corr energy       0.00 sec, wall time      0.01 sec, GPU time      6.44 ms
    CPU time for dfmp2_kernel_one_gpu                                    0.04 sec, wall time      0.07 sec, GPU time     67.30 ms
e_corr_os: -0.15229582786777318
e_corr_ss: -0.05135782412107287
    CPU time for DFMP2                                                   0.06 sec, wall time      0.08 sec, GPU time     81.41 ms
E(DFMP2) = -76.1644365110999  E_corr = -0.203653651988846
E(SCS-DFMP2) = -76.1606571272594  E_corr = -0.199874268148352
E_corr(same-spin) = -0.0513578241210729
E_corr(oppo-spin) = -0.152295827867773
