#INFO: **** input file is /mmhome/boittier/home/mmml/.venv/bin/mmml ****
#!/mmhome/boittier/home/mmml/.venv/bin/python3
# -*- coding: utf-8 -*-
import sys
from mmml.cli.__main__ import main
if __name__ == "__main__":
    if sys.argv[0].endswith("-script.pyw"):
        sys.argv[0] = sys.argv[0][:-11]
    elif sys.argv[0].endswith(".exe"):
        sys.argv[0] = sys.argv[0][:-4]
    sys.exit(main())
#INFO: ******************** input file end ********************


System: uname_result(system='Linux', node='gpu12', release='5.15.0-118-generic', version='#128-Ubuntu SMP Fri Jul 5 09:28:59 UTC 2024', machine='x86_64')  Threads 4
Python 3.13.12 | packaged by conda-forge | (main, Feb  5 2026, 05:53:46) [GCC 14.3.0]
numpy 2.4.3  scipy 1.17.1  h5py 3.16.0
Date: Wed Apr  8 16:52:16 2026
PySCF version 2.12.1
PySCF path  /mmhome/boittier/home/mmml/.venv/lib/python3.13/site-packages/pyscf/__init__.py
CUDA Environment
    CuPy 14.0.1
    CUDA Path None
    CUDA Build Version 12090
    CUDA Driver Version 12040
    CUDA Runtime Version 12090
CUDA toolkit
    cuSolver (11, 7, 5)
    cuBLAS 120902
    cuTENSOR None
Device info
    Device name b'NVIDIA GeForce RTX 3080'
    Device global memory 9.77 GB
    CuPy memory fraction 0.9
    Num. Devices 1
GPU4PySCF 1.6.1
GPU4PySCF path  /mmhome/boittier/home/mmml/.venv/lib/python3.13/site-packages/gpu4pyscf

[CONFIG] conf_file None
[INPUT] verbose = 6
[INPUT] max_memory = 4000 
[INPUT] num. atoms = 4
[INPUT] num. electrons = 18
[INPUT] charge = 0
[INPUT] spin (= nelec alpha-beta = 2S) = 0
[INPUT] symmetry False subgroup None
[INPUT] Mole.unit = angstrom
[INPUT] Symbol           X                Y                Z      unit          X                Y                Z       unit  Magmom
[INPUT]  1 O      0.000000000000   0.000000000000   0.000000000000 AA    0.000000000000   0.000000000000   0.000000000000 Bohr   0.0
[INPUT]  2 O      0.000000000000   0.000000000000   1.480000000000 AA    0.000000000000   0.000000000000   2.796794664356 Bohr   0.0
[INPUT]  3 H     -0.895669000000   0.500000000000  -0.316667000000 AA   -1.692569108263   0.944863062283  -0.598413902688 Bohr   0.0
[INPUT]  4 H      0.895669000000   0.500000000000   1.796667000000 AA    1.692569108263   0.944863062283   3.395208567044 Bohr   0.0
[INPUT] ---------------- BASIS SET ---------------- 
[INPUT] l, kappa, [nprim/nctr], expnt,             c_1 c_2 ...
[INPUT] H
[INPUT] 0    0    [3    /1   ]  13.010701         0.019682158
                                1.9622572         0.13796524
                                0.44453796        0.47831935
[INPUT] 0    0    [1    /1   ]  0.12194962           1
[INPUT] 1    0    [1    /1   ]  0.8                  1
[INPUT] O
[INPUT] 0    0    [5    /1   ]  2266.1767785      -0.0053431809926
                                340.87010191      -0.03989003923
                                77.363135167      -0.17853911985
                                21.47964494       -0.46427684959
                                6.6589433124      -0.44309745172
[INPUT] 0    0    [1    /1   ]  0.80975975668        1
[INPUT] 0    0    [1    /1   ]  0.25530772234        1
[INPUT] 1    0    [3    /1   ]  17.721504317      0.043394573193
                                3.863550544       0.23094120765
                                1.0480920883      0.51375311064
[INPUT] 1    0    [1    /1   ]  0.27641544411        1
[INPUT] 2    0    [1    /1   ]  1.2                  1

nuclear repulsion = 35.0536308979619
number of shells = 18
number of NR pGTOs = 62
number of NR cGTOs = 38
basis = def2-SVP
ecp = {}
CPU time:         2.20


******** <class 'gpu4pyscf.df.df_jk.DFRKS'> ********
method = DFRKS
initial guess = minao
damping factor = None
level_shift factor = None
DIIS = <class 'gpu4pyscf.scf.diis.CDIIS'>
diis_start_cycle = 1
diis_space = 8
diis_damp = 0
SCF conv_tol = 1e-10
SCF conv_tol_grad = None
SCF max_cycles = 50
direct_scf = False
XC library gpu4pyscf.dft.libxc version 7.0.0 (CUDA)
    unable to decode the reference due to https://github.com/NVIDIA/cuda-python/issues/29
XC functionals = PBE0
radial grids: 
Treutler-Ahlrichs [JCP 102, 346 (1995); DOI:10.1063/1.469408] (M4) radial grids

becke partition: Becke, JCP 88, 2547 (1988); DOI:10.1063/1.454033
pruning grids: <function nwchem_prune at 0x1523ae176f20>
grids dens level: 3
symmetrized grids: False
atomic radii adjust function: <function treutler_atomic_radii_adjust at 0x1523ae176fc0>
User specified grid scheme (99, 590)
small_rho_cutoff = 1e-07
Set gradient conv threshold to 1e-05
    CPU time for generating initial guess                                0.13 sec, wall time      0.12 sec, GPU time    118.58 ms
Number of shells for each [l, nprim] group
    [0 5] : 2
    [0 3] : 2
    [0 1] : 6
    [1 3] : 2
    [1 1] : 4
    [2 1] : 2
sp_blocks = 21, ksh_blocks = 1, shm_size = 59512 B
    CPU time for processing contract_int3c2e_auxvec                      0.00 sec, wall time      0.01 sec, GPU time      6.88 ms
Number of shells for each [l, nprim] group
    [0 5] : 2
    [0 3] : 2
    [0 1] : 6
    [1 3] : 2
    [1 1] : 4
    [2 1] : 2
Number of shells for each [l, nprim] group
    [0 5] : 2
    [0 3] : 2
    [0 1] : 6
    [1 3] : 2
    [1 1] : 4
    [2 1] : 2
    CPU time for hcore                                                   0.14 sec, wall time      0.16 sec, GPU time    155.50 ms
atom O rad-grids = 99, ang-grids = [ 50  50  50  50  50  50  50  50  50  50  50  50  50  50  50  50  50  50
  50  50  50  50  50  50  50  50  50  50  50  50  86  86  86  86  86  86
  86  86  86  86  86  86  86 434 434 434 434 434 434 434 434 590 590 590
 590 590 590 590 590 590 590 590 590 590 590 590 590 590 590 590 590 590
 590 590 590 590 590 590 434 434 434 434 434 434 434 434 434 434 434 434
 434 434 434 434 434 434 434 434 434]
atom H rad-grids = 99, ang-grids = [ 50  50  50  50  50  50  50  50  50  50  50  50  50  50  50  50  50  50
  50  50  50  50  50  50  50  50  50  50  50  50  86  86  86  86  86  86
  86 434 434 434 434 434 434 434 434 434 434 590 590 590 590 590 590 590
 590 590 590 590 590 590 590 590 590 590 590 590 590 590 590 590 590 590
 590 590 434 434 434 434 434 434 434 434 434 434 434 434 434 434 434 434
 434 434 434 434 434 434 434 434 434]
    CPU time for generating atomic grids                                 0.01 sec, wall time      0.01 sec, GPU time     10.05 ms
Padding 56 grids
    CPU time for sorting grids                                           0.04 sec, wall time      0.05 sec, GPU time     45.51 ms
tot grids = 128768
Number of shells for each [l, nctr] group
    [0 1] : 6
    [0 3] : 2
    [0 5] : 2
    [1 1] : 4
    [1 3] : 2
    [2 1] : 2
0 - 128768 grids are calculated on Device 0.
mem_info: unallocated=9747.94 MB, used=6.44 MB, free=9.57 MB, free_blocks=17
10231.491072 MB memory is available on Device 0, block_size None
    CPU time for eval rho                                                0.06 sec, wall time      0.06 sec, GPU time     58.23 ms
Drop grids 11826
prune_by_density_: 50 padding grids
    CPU time for setting up grids                                        0.12 sec, wall time      0.13 sec, GPU time    127.58 ms
116992 grids on Device 0
0 - 116992 grids are calculated on Device 0.
mem_info: unallocated=9827.94 MB, used=10.62 MB, free=11.90 MB, free_blocks=18
10317.819904 MB memory is available on Device 0, block_size None
    CPU time for eval rho on Device 0                                    0.05 sec, wall time      0.05 sec, GPU time     46.60 ms
    CPU time for eval vxc on Device 0                                    0.09 sec, wall time      0.09 sec, GPU time     86.33 ms
0 - 116992 grids are calculated on Device 0.
mem_info: unallocated=9803.94 MB, used=14.51 MB, free=20.80 MB, free_blocks=21
10301.98528 MB memory is available on Device 0, block_size None
    CPU time for eval integration on 0                                   0.02 sec, wall time      0.02 sec, GPU time     22.73 ms
    CPU time for nr_rks                                                  0.16 sec, wall time      0.16 sec, GPU time    160.96 ms
nelec by numeric integration = 17.964281753442755
    CPU time for vxc                                                     0.28 sec, wall time      0.29 sec, GPU time    288.70 ms
Build CDERI ...
Psi4 predefined JKFIT basis set def2-svp-jkfit for HF
Default auxbasis def2-svp-jkfit is applied universally
num shells = 62, num cGTOs = 190
    CPU time for 2c2e                                                    0.01 sec, wall time      0.01 sec, GPU time     12.36 ms
Number of shells for each [l, nctr] group
    [0 1] : 6
    [0 3] : 2
    [0 5] : 2
    [1 1] : 4
    [1 3] : 2
    [2 1] : 2
Number of shells for each [l, nctr] group
    [0 1] : 20
    [0 3] : 2
    [0 5] : 2
    [1 1] : 18
    [1 3] : 2
    [2 1] : 10
    [2 3] : 2
    [3 1] : 4
    [4 1] : 2
    CPU time for Initialize q_cond                                       0.00 sec, wall time      0.00 sec, GPU time      3.02 ms
    CPU time for Get AO pairing                                          0.00 sec, wall time      0.00 sec, GPU time      0.68 ms
    CPU time for AO indices                                              0.00 sec, wall time      0.00 sec, GPU time      0.21 ms
    CPU time for Aux AO indices                                          0.00 sec, wall time      0.00 sec, GPU time      0.29 ms
    CPU time for Get AO pairs                                            0.01 sec, wall time      0.00 sec, GPU time      0.98 ms
    CPU time for prepare intopt                                          0.02 sec, wall time      0.01 sec, GPU time     10.11 ms
size of aux basis 190
Saving CDERI on GPU
CDERI size 0.001 GB on Device 0
    CPU time for Initialize GPU cache on Device 0                        0.00 sec, wall time      0.00 sec, GPU time      0.98 ms
    CPU time for solve 2 / 21 on Device 0                                0.06 sec, wall time      0.06 sec, GPU time     59.27 ms
    CPU time for transfer data for 2 / 21 on Device 0                    0.00 sec, wall time      0.00 sec, GPU time      1.26 ms
    CPU time for solve 5 / 21 on Device 0                                0.00 sec, wall time      0.00 sec, GPU time      3.97 ms
    CPU time for transfer data for 5 / 21 on Device 0                    0.00 sec, wall time      0.00 sec, GPU time      0.10 ms
    CPU time for solve 4 / 21 on Device 0                                0.00 sec, wall time      0.00 sec, GPU time      2.97 ms
    CPU time for transfer data for 4 / 21 on Device 0                    0.00 sec, wall time      0.00 sec, GPU time      0.09 ms
    CPU time for solve 1 / 21 on Device 0                                0.00 sec, wall time      0.00 sec, GPU time      2.21 ms
    CPU time for transfer data for 1 / 21 on Device 0                    0.00 sec, wall time      0.00 sec, GPU time      0.09 ms
    CPU time for solve 3 / 21 on Device 0                                0.00 sec, wall time      0.00 sec, GPU time      2.33 ms
    CPU time for transfer data for 3 / 21 on Device 0                    0.00 sec, wall time      0.00 sec, GPU time      0.09 ms
    CPU time for solve 11 / 21 on Device 0                               0.00 sec, wall time      0.00 sec, GPU time      3.21 ms
    CPU time for transfer data for 11 / 21 on Device 0                   0.00 sec, wall time      0.00 sec, GPU time      0.09 ms
    CPU time for solve 12 / 21 on Device 0                               0.00 sec, wall time      0.00 sec, GPU time      3.63 ms
    CPU time for transfer data for 12 / 21 on Device 0                   0.00 sec, wall time      0.00 sec, GPU time      0.09 ms
    CPU time for solve 16 / 21 on Device 0                               0.00 sec, wall time      0.00 sec, GPU time      3.21 ms
    CPU time for transfer data for 16 / 21 on Device 0                   0.00 sec, wall time      0.00 sec, GPU time      0.10 ms
    CPU time for solve 17 / 21 on Device 0                               0.00 sec, wall time      0.00 sec, GPU time      3.53 ms
    CPU time for transfer data for 17 / 21 on Device 0                   0.00 sec, wall time      0.00 sec, GPU time      0.10 ms
    CPU time for solve 0 / 21 on Device 0                                0.00 sec, wall time      0.00 sec, GPU time      2.40 ms
    CPU time for transfer data for 0 / 21 on Device 0                    0.00 sec, wall time      0.00 sec, GPU time      0.10 ms
    CPU time for solve 14 / 21 on Device 0                               0.01 sec, wall time      0.01 sec, GPU time      5.51 ms
    CPU time for transfer data for 14 / 21 on Device 0                   0.00 sec, wall time      0.00 sec, GPU time      0.10 ms
    CPU time for solve 7 / 21 on Device 0                                0.00 sec, wall time      0.00 sec, GPU time      2.57 ms
    CPU time for transfer data for 7 / 21 on Device 0                    0.00 sec, wall time      0.00 sec, GPU time      0.10 ms
    CPU time for solve 8 / 21 on Device 0                                0.00 sec, wall time      0.00 sec, GPU time      2.74 ms
    CPU time for transfer data for 8 / 21 on Device 0                    0.00 sec, wall time      0.00 sec, GPU time      0.09 ms
    CPU time for solve 10 / 21 on Device 0                               0.00 sec, wall time      0.00 sec, GPU time      2.59 ms
    CPU time for transfer data for 10 / 21 on Device 0                   0.00 sec, wall time      0.00 sec, GPU time      0.10 ms
    CPU time for solve 20 / 21 on Device 0                               0.00 sec, wall time      0.00 sec, GPU time      4.33 ms
    CPU time for transfer data for 20 / 21 on Device 0                   0.00 sec, wall time      0.00 sec, GPU time      0.10 ms
    CPU time for solve 15 / 21 on Device 0                               0.00 sec, wall time      0.00 sec, GPU time      2.50 ms
    CPU time for transfer data for 15 / 21 on Device 0                   0.00 sec, wall time      0.00 sec, GPU time      0.10 ms
    CPU time for solve 19 / 21 on Device 0                               0.00 sec, wall time      0.00 sec, GPU time      3.31 ms
    CPU time for transfer data for 19 / 21 on Device 0                   0.00 sec, wall time      0.00 sec, GPU time      0.10 ms
    CPU time for solve 6 / 21 on Device 0                                0.00 sec, wall time      0.00 sec, GPU time      2.40 ms
    CPU time for transfer data for 6 / 21 on Device 0                    0.00 sec, wall time      0.00 sec, GPU time      0.10 ms
    CPU time for solve 13 / 21 on Device 0                               0.00 sec, wall time      0.00 sec, GPU time      2.68 ms
    CPU time for transfer data for 13 / 21 on Device 0                   0.00 sec, wall time      0.00 sec, GPU time      0.10 ms
    CPU time for solve 9 / 21 on Device 0                                0.00 sec, wall time      0.00 sec, GPU time      2.40 ms
    CPU time for transfer data for 9 / 21 on Device 0                    0.00 sec, wall time      0.00 sec, GPU time      0.09 ms
    CPU time for solve 18 / 21 on Device 0                               0.00 sec, wall time      0.00 sec, GPU time      2.54 ms
    CPU time for transfer data for 18 / 21 on Device 0                   0.00 sec, wall time      0.00 sec, GPU time      0.10 ms
    CPU time for cholesky_eri                                            0.15 sec, wall time      0.14 sec, GPU time    144.30 ms
    CPU time for init jk                                                 0.17 sec, wall time      0.16 sec, GPU time    156.79 ms
9.433 GB memory available on Device 0, block size = 64
    CPU time for vj and vk on Device 0                                   0.01 sec, wall time      0.01 sec, GPU time     13.11 ms
    CPU time for vj and vk                                               0.01 sec, wall time      0.02 sec, GPU time     16.09 ms
    CPU time for veff                                                    0.18 sec, wall time      0.18 sec, GPU time    176.99 ms
E1 = -276.24230472679045  Ecoul = 107.36639739116372  Exc = -17.30408336197977
init E= -151.126359799645
cond(S) = 132.96429154915657
    CPU time for SCF initialization                                      0.76 sec, wall time      0.77 sec, GPU time    768.27 ms
    CPU time for DIIS                                                    0.00 sec, wall time      0.00 sec, GPU time      0.74 ms
    CPU time for eig                                                     0.00 sec, wall time      0.00 sec, GPU time      1.74 ms
  HOMO = -0.343953141731476  LUMO = -0.109892037790209
116992 grids on Device 0
0 - 116992 grids are calculated on Device 0.
mem_info: unallocated=9765.94 MB, used=12.29 MB, free=27.77 MB, free_blocks=25
10269.443072 MB memory is available on Device 0, block_size None
    CPU time for eval rho on Device 0                                    0.02 sec, wall time      0.02 sec, GPU time     24.96 ms
    CPU time for eval vxc on Device 0                                    0.00 sec, wall time      0.00 sec, GPU time      1.68 ms
0 - 116992 grids are calculated on Device 0.
mem_info: unallocated=9757.94 MB, used=16.17 MB, free=23.89 MB, free_blocks=25
10256.984576 MB memory is available on Device 0, block_size None
    CPU time for eval integration on 0                                   0.01 sec, wall time      0.01 sec, GPU time     10.55 ms
    CPU time for nr_rks                                                  0.04 sec, wall time      0.04 sec, GPU time     39.82 ms
nelec by numeric integration = 17.9999999912364
    CPU time for vxc                                                     0.04 sec, wall time      0.04 sec, GPU time     39.93 ms
9.432 GB memory available on Device 0, block size = 64
    CPU time for vj and vk on Device 0                                   0.01 sec, wall time      0.01 sec, GPU time     10.26 ms
    CPU time for vj and vk                                               0.01 sec, wall time      0.01 sec, GPU time     13.23 ms
    CPU time for veff                                                    0.01 sec, wall time      0.01 sec, GPU time     14.18 ms
    CPU time for veff                                                    0.06 sec, wall time      0.06 sec, GPU time     59.14 ms
E1 = -279.9454950084282  Ecoul = 111.52007575802386  Exc = -17.817438102975927
    CPU time for cycle=1                                                 0.06 sec, wall time      0.07 sec, GPU time     65.37 ms
cycle= 1 E= -151.189226455418  delta_E= -0.0629  |g|= 0.49  |ddm|= 1.78
diis-c [-0.24043555  1.        ]
    CPU time for DIIS                                                    0.00 sec, wall time      0.00 sec, GPU time      3.67 ms
    CPU time for eig                                                     0.00 sec, wall time      0.00 sec, GPU time      1.70 ms
  HOMO = -0.187343532606851  LUMO = 0.0481233539805644
116992 grids on Device 0
0 - 116992 grids are calculated on Device 0.
mem_info: unallocated=9765.94 MB, used=12.30 MB, free=27.75 MB, free_blocks=26
10269.42976 MB memory is available on Device 0, block_size None
    CPU time for eval rho on Device 0                                    0.02 sec, wall time      0.02 sec, GPU time     22.47 ms
    CPU time for eval vxc on Device 0                                    0.00 sec, wall time      0.00 sec, GPU time      1.62 ms
0 - 116992 grids are calculated on Device 0.
mem_info: unallocated=9757.94 MB, used=16.19 MB, free=23.87 MB, free_blocks=25
10256.971264 MB memory is available on Device 0, block_size None
    CPU time for eval integration on 0                                   0.01 sec, wall time      0.01 sec, GPU time     11.04 ms
    CPU time for nr_rks                                                  0.04 sec, wall time      0.04 sec, GPU time     36.31 ms
nelec by numeric integration = 17.999999993783785
    CPU time for vxc                                                     0.04 sec, wall time      0.04 sec, GPU time     36.40 ms
9.432 GB memory available on Device 0, block size = 64
    CPU time for vj and vk on Device 0                                   0.01 sec, wall time      0.01 sec, GPU time      6.58 ms
    CPU time for vj and vk                                               0.01 sec, wall time      0.01 sec, GPU time      8.71 ms
    CPU time for veff                                                    0.01 sec, wall time      0.01 sec, GPU time      9.63 ms
    CPU time for veff                                                    0.05 sec, wall time      0.05 sec, GPU time     47.71 ms
E1 = -275.5945743260161  Ecoul = 106.65824532196785  Exc = -17.299664611987737
    CPU time for cycle=2                                                 0.05 sec, wall time      0.05 sec, GPU time     54.69 ms
cycle= 2 E= -151.182362718074  delta_E= 0.00686  |g|= 0.544  |ddm|= 0.786
diis-c [-0.01230437  0.52700969  0.47299031]
    CPU time for DIIS                                                    0.00 sec, wall time      0.00 sec, GPU time      1.45 ms
    CPU time for eig                                                     0.00 sec, wall time      0.00 sec, GPU time      1.67 ms
  HOMO = -0.28400747797823  LUMO = -0.00133659607881271
116992 grids on Device 0
0 - 116992 grids are calculated on Device 0.
mem_info: unallocated=9765.94 MB, used=12.32 MB, free=27.74 MB, free_blocks=27
10269.417472 MB memory is available on Device 0, block_size None
    CPU time for eval rho on Device 0                                    0.02 sec, wall time      0.02 sec, GPU time     22.28 ms
    CPU time for eval vxc on Device 0                                    0.00 sec, wall time      0.00 sec, GPU time      1.60 ms
0 - 116992 grids are calculated on Device 0.
mem_info: unallocated=9757.94 MB, used=16.20 MB, free=23.86 MB, free_blocks=25
10256.958976 MB memory is available on Device 0, block_size None
    CPU time for eval integration on 0                                   0.01 sec, wall time      0.01 sec, GPU time     10.76 ms
    CPU time for nr_rks                                                  0.04 sec, wall time      0.04 sec, GPU time     35.81 ms
nelec by numeric integration = 17.999999992445762
    CPU time for vxc                                                     0.04 sec, wall time      0.04 sec, GPU time     35.90 ms
9.432 GB memory available on Device 0, block size = 64
    CPU time for vj and vk on Device 0                                   0.01 sec, wall time      0.01 sec, GPU time      6.46 ms
    CPU time for vj and vk                                               0.01 sec, wall time      0.01 sec, GPU time      8.58 ms
    CPU time for veff                                                    0.01 sec, wall time      0.01 sec, GPU time      9.50 ms
    CPU time for veff                                                    0.05 sec, wall time      0.05 sec, GPU time     47.02 ms
E1 = -278.2238965570801  Ecoul = 109.53182893872354  Exc = -17.60212585295097
    CPU time for cycle=3                                                 0.05 sec, wall time      0.05 sec, GPU time     51.73 ms
cycle= 3 E= -151.240562573346  delta_E= -0.0582  |g|= 0.0487  |ddm|= 0.422
diis-c [-2.29361187e-04  1.29077420e-01  1.44196566e-01  7.26726014e-01]
    CPU time for DIIS                                                    0.00 sec, wall time      0.00 sec, GPU time      1.63 ms
    CPU time for eig                                                     0.00 sec, wall time      0.00 sec, GPU time      1.68 ms
  HOMO = -0.277502744509809  LUMO = 0.00779796049203222
116992 grids on Device 0
0 - 116992 grids are calculated on Device 0.
mem_info: unallocated=9765.94 MB, used=12.33 MB, free=27.73 MB, free_blocks=25
10269.405184 MB memory is available on Device 0, block_size None
    CPU time for eval rho on Device 0                                    0.02 sec, wall time      0.02 sec, GPU time     22.45 ms
    CPU time for eval vxc on Device 0                                    0.00 sec, wall time      0.00 sec, GPU time      1.62 ms
0 - 116992 grids are calculated on Device 0.
mem_info: unallocated=9757.94 MB, used=16.21 MB, free=23.85 MB, free_blocks=25
10256.946688 MB memory is available on Device 0, block_size None
    CPU time for eval integration on 0                                   0.01 sec, wall time      0.01 sec, GPU time     10.49 ms
    CPU time for nr_rks                                                  0.04 sec, wall time      0.04 sec, GPU time     35.74 ms
nelec by numeric integration = 17.99999999251731
    CPU time for vxc                                                     0.04 sec, wall time      0.04 sec, GPU time     35.83 ms
9.432 GB memory available on Device 0, block size = 64
    CPU time for vj and vk on Device 0                                   0.01 sec, wall time      0.01 sec, GPU time      6.48 ms
    CPU time for vj and vk                                               0.01 sec, wall time      0.01 sec, GPU time      8.60 ms
    CPU time for veff                                                    0.01 sec, wall time      0.01 sec, GPU time      9.53 ms
    CPU time for veff                                                    0.05 sec, wall time      0.05 sec, GPU time     46.99 ms
E1 = -278.0523359971928  Ecoul = 109.34180588171823  Exc = -17.58406955295636
    CPU time for cycle=4                                                 0.05 sec, wall time      0.05 sec, GPU time     51.90 ms
cycle= 4 E= -151.240968770469  delta_E= -0.000406  |g|= 0.00451  |ddm|= 0.0297
diis-c [-3.78974041e-06  2.99158339e-03  1.98574357e-03  8.12627853e-02
  9.13759888e-01]
    CPU time for DIIS                                                    0.00 sec, wall time      0.00 sec, GPU time      1.83 ms
    CPU time for eig                                                     0.00 sec, wall time      0.00 sec, GPU time      1.70 ms
  HOMO = -0.278088106414604  LUMO = 0.00750812117484494
116992 grids on Device 0
0 - 116992 grids are calculated on Device 0.
mem_info: unallocated=9765.94 MB, used=12.34 MB, free=27.72 MB, free_blocks=25
10269.392896 MB memory is available on Device 0, block_size None
    CPU time for eval rho on Device 0                                    0.02 sec, wall time      0.02 sec, GPU time     22.53 ms
    CPU time for eval vxc on Device 0                                    0.00 sec, wall time      0.00 sec, GPU time      1.59 ms
0 - 116992 grids are calculated on Device 0.
mem_info: unallocated=9757.94 MB, used=16.22 MB, free=23.84 MB, free_blocks=24
10256.9344 MB memory is available on Device 0, block_size None
    CPU time for eval integration on 0                                   0.01 sec, wall time      0.01 sec, GPU time     10.48 ms
    CPU time for nr_rks                                                  0.04 sec, wall time      0.04 sec, GPU time     35.78 ms
nelec by numeric integration = 17.999999992497784
    CPU time for vxc                                                     0.04 sec, wall time      0.04 sec, GPU time     35.87 ms
9.432 GB memory available on Device 0, block size = 64
    CPU time for vj and vk on Device 0                                   0.01 sec, wall time      0.01 sec, GPU time      6.45 ms
    CPU time for vj and vk                                               0.01 sec, wall time      0.01 sec, GPU time      8.57 ms
    CPU time for veff                                                    0.01 sec, wall time      0.01 sec, GPU time      9.49 ms
    CPU time for veff                                                    0.05 sec, wall time      0.05 sec, GPU time     46.98 ms
E1 = -278.06357367758557  Ecoul = 109.35410173022628  Exc = -17.585131395555138
    CPU time for cycle=5                                                 0.05 sec, wall time      0.05 sec, GPU time     52.11 ms
cycle= 5 E= -151.240972444952  delta_E= -3.67e-06  |g|= 0.000671  |ddm|= 0.00312
diis-c [-1.05098936e-07 -1.42787204e-03 -2.26176066e-03  4.82029282e-03
  1.83468530e-01  8.15400810e-01]
    CPU time for DIIS                                                    0.00 sec, wall time      0.00 sec, GPU time      2.07 ms
    CPU time for eig                                                     0.00 sec, wall time      0.00 sec, GPU time      1.70 ms
  HOMO = -0.278208916134718  LUMO = 0.00741365835692583
116992 grids on Device 0
0 - 116992 grids are calculated on Device 0.
mem_info: unallocated=9765.94 MB, used=12.35 MB, free=27.71 MB, free_blocks=25
10269.380608 MB memory is available on Device 0, block_size None
    CPU time for eval rho on Device 0                                    0.02 sec, wall time      0.02 sec, GPU time     22.44 ms
    CPU time for eval vxc on Device 0                                    0.00 sec, wall time      0.00 sec, GPU time      1.60 ms
0 - 116992 grids are calculated on Device 0.
mem_info: unallocated=9757.94 MB, used=16.23 MB, free=23.83 MB, free_blocks=24
10256.922112 MB memory is available on Device 0, block_size None
    CPU time for eval integration on 0                                   0.01 sec, wall time      0.01 sec, GPU time     10.54 ms
    CPU time for nr_rks                                                  0.04 sec, wall time      0.04 sec, GPU time     35.74 ms
nelec by numeric integration = 17.9999999924981
    CPU time for vxc                                                     0.04 sec, wall time      0.04 sec, GPU time     35.83 ms
9.432 GB memory available on Device 0, block size = 64
    CPU time for vj and vk on Device 0                                   0.01 sec, wall time      0.01 sec, GPU time      6.47 ms
    CPU time for vj and vk                                               0.01 sec, wall time      0.01 sec, GPU time      8.61 ms
    CPU time for veff                                                    0.01 sec, wall time      0.01 sec, GPU time      9.53 ms
    CPU time for veff                                                    0.05 sec, wall time      0.05 sec, GPU time     46.99 ms
E1 = -278.06477119650145  Ecoul = 109.35550426187021  Exc = -17.585336487827647
    CPU time for cycle=6                                                 0.05 sec, wall time      0.05 sec, GPU time     52.37 ms
cycle= 6 E= -151.240972524497  delta_E= -7.95e-08  |g|= 6.31e-05  |ddm|= 0.000454
diis-c [-1.25570869e-09 -1.02849965e-04 -1.86480702e-04 -9.30000368e-04
 -5.92397517e-03  4.86060454e-02  9.58537261e-01]
    CPU time for DIIS                                                    0.00 sec, wall time      0.00 sec, GPU time      2.27 ms
    CPU time for eig                                                     0.00 sec, wall time      0.00 sec, GPU time      1.71 ms
  HOMO = -0.278221939268779  LUMO = 0.00740397764618956
116992 grids on Device 0
0 - 116992 grids are calculated on Device 0.
mem_info: unallocated=9765.94 MB, used=12.36 MB, free=27.70 MB, free_blocks=25
10269.36832 MB memory is available on Device 0, block_size None
    CPU time for eval rho on Device 0                                    0.02 sec, wall time      0.02 sec, GPU time     22.47 ms
    CPU time for eval vxc on Device 0                                    0.00 sec, wall time      0.00 sec, GPU time      1.59 ms
0 - 116992 grids are calculated on Device 0.
mem_info: unallocated=9757.94 MB, used=16.24 MB, free=23.81 MB, free_blocks=24
10256.909824 MB memory is available on Device 0, block_size None
    CPU time for eval integration on 0                                   0.01 sec, wall time      0.01 sec, GPU time     10.72 ms
    CPU time for nr_rks                                                  0.04 sec, wall time      0.04 sec, GPU time     35.96 ms
nelec by numeric integration = 17.99999999249765
    CPU time for vxc                                                     0.04 sec, wall time      0.04 sec, GPU time     36.05 ms
9.432 GB memory available on Device 0, block size = 64
    CPU time for vj and vk on Device 0                                   0.01 sec, wall time      0.01 sec, GPU time      6.39 ms
    CPU time for vj and vk                                               0.01 sec, wall time      0.01 sec, GPU time      8.48 ms
    CPU time for veff                                                    0.01 sec, wall time      0.01 sec, GPU time      9.40 ms
    CPU time for veff                                                    0.05 sec, wall time      0.05 sec, GPU time     47.06 ms
E1 = -278.0648819541997  Ecoul = 109.35562620542113  Exc = -17.58534767472981
    CPU time for cycle=7                                                 0.05 sec, wall time      0.05 sec, GPU time     52.62 ms
cycle= 7 E= -151.240972525546  delta_E= -1.05e-09  |g|= 1.07e-05  |ddm|= 7.55e-05
diis-c [-6.91888287e-11 -2.32212335e-06 -6.22739797e-06 -2.23304366e-04
 -3.27326529e-03 -6.80234278e-04  1.37141374e-01  8.67043979e-01]
    CPU time for DIIS                                                    0.00 sec, wall time      0.00 sec, GPU time      2.46 ms
    CPU time for eig                                                     0.00 sec, wall time      0.00 sec, GPU time      1.69 ms
  HOMO = -0.278222305250647  LUMO = 0.00740317868538727
116992 grids on Device 0
0 - 116992 grids are calculated on Device 0.
mem_info: unallocated=9765.94 MB, used=12.38 MB, free=27.68 MB, free_blocks=27
10269.356032 MB memory is available on Device 0, block_size None
    CPU time for eval rho on Device 0                                    0.02 sec, wall time      0.02 sec, GPU time     22.49 ms
    CPU time for eval vxc on Device 0                                    0.00 sec, wall time      0.00 sec, GPU time      1.62 ms
0 - 116992 grids are calculated on Device 0.
mem_info: unallocated=9757.94 MB, used=16.26 MB, free=23.80 MB, free_blocks=24
10256.897536 MB memory is available on Device 0, block_size None
    CPU time for eval integration on 0                                   0.01 sec, wall time      0.01 sec, GPU time     10.57 ms
    CPU time for nr_rks                                                  0.04 sec, wall time      0.04 sec, GPU time     35.86 ms
nelec by numeric integration = 17.999999992497607
    CPU time for vxc                                                     0.04 sec, wall time      0.04 sec, GPU time     35.95 ms
9.432 GB memory available on Device 0, block size = 64
    CPU time for vj and vk on Device 0                                   0.01 sec, wall time      0.01 sec, GPU time      6.43 ms
    CPU time for vj and vk                                               0.01 sec, wall time      0.01 sec, GPU time      8.57 ms
    CPU time for veff                                                    0.01 sec, wall time      0.01 sec, GPU time      9.51 ms
    CPU time for veff                                                    0.05 sec, wall time      0.05 sec, GPU time     47.05 ms
E1 = -278.06488719109007  Ecoul = 109.35563230811374  Exc = -17.585348540561082
    CPU time for cycle=8                                                 0.05 sec, wall time      0.05 sec, GPU time     52.77 ms
cycle= 8 E= -151.240972525575  delta_E= -2.9e-11  |g|= 1.5e-06  |ddm|= 9.97e-06
    CPU time for SCF                                                     1.19 sec, wall time      1.20 sec, GPU time   1204.59 ms
converged SCF energy = -151.240972525575
0 - 116992 grids are calculated on Device 0.
mem_info: unallocated=9765.94 MB, used=6.59 MB, free=33.47 MB, free_blocks=26
10275.423744 MB memory is available on Device 0, block_size None
    CPU time for eval rho in fxc                                         0.04 sec, wall time      0.04 sec, GPU time     43.11 ms
    CPU time for eval fxc                                                0.01 sec, wall time      0.01 sec, GPU time      6.61 ms
116992 on Device 0
0 - 116992 grids are calculated on Device 0.
mem_info: unallocated=9739.94 MB, used=30.26 MB, free=32.11 MB, free_blocks=23
10246.736384 MB memory is available on Device 0, block_size None
    CPU time for vxc                                                     0.06 sec, wall time      0.07 sec, GPU time     65.53 ms
    CPU time for nr_rks_fxc                                              0.07 sec, wall time      0.07 sec, GPU time     68.26 ms
9.410 GB memory available on Device 0, block size = 64
    CPU time for vj and vk on Device 0                                   0.01 sec, wall time      0.01 sec, GPU time      8.86 ms
    CPU time for vj and vk                                               0.01 sec, wall time      0.01 sec, GPU time     11.95 ms
116992 on Device 0
0 - 116992 grids are calculated on Device 0.
mem_info: unallocated=9739.94 MB, used=30.28 MB, free=32.10 MB, free_blocks=25
10246.721024 MB memory is available on Device 0, block_size None
    CPU time for vxc                                                     0.06 sec, wall time      0.06 sec, GPU time     62.82 ms
    CPU time for nr_rks_fxc                                              0.06 sec, wall time      0.06 sec, GPU time     64.33 ms
9.410 GB memory available on Device 0, block size = 64
    CPU time for vj and vk on Device 0                                   0.01 sec, wall time      0.01 sec, GPU time      8.73 ms
    CPU time for vj and vk                                               0.01 sec, wall time      0.01 sec, GPU time     10.47 ms
116992 on Device 0
0 - 116992 grids are calculated on Device 0.
mem_info: unallocated=9739.94 MB, used=30.29 MB, free=32.08 MB, free_blocks=24
10246.7072 MB memory is available on Device 0, block_size None
    CPU time for vxc                                                     0.06 sec, wall time      0.06 sec, GPU time     62.65 ms
    CPU time for nr_rks_fxc                                              0.06 sec, wall time      0.06 sec, GPU time     64.14 ms
9.410 GB memory available on Device 0, block size = 64
    CPU time for vj and vk on Device 0                                   0.01 sec, wall time      0.01 sec, GPU time      8.76 ms
    CPU time for vj and vk                                               0.01 sec, wall time      0.01 sec, GPU time     10.46 ms
116992 on Device 0
0 - 116992 grids are calculated on Device 0.
mem_info: unallocated=9739.94 MB, used=30.30 MB, free=32.07 MB, free_blocks=25
10246.693376 MB memory is available on Device 0, block_size None
    CPU time for vxc                                                     0.06 sec, wall time      0.06 sec, GPU time     63.18 ms
    CPU time for nr_rks_fxc                                              0.06 sec, wall time      0.06 sec, GPU time     64.65 ms
9.410 GB memory available on Device 0, block size = 64
    CPU time for vj and vk on Device 0                                   0.01 sec, wall time      0.01 sec, GPU time      8.73 ms
    CPU time for vj and vk                                               0.01 sec, wall time      0.01 sec, GPU time     10.44 ms
116992 on Device 0
0 - 116992 grids are calculated on Device 0.
mem_info: unallocated=9739.94 MB, used=30.32 MB, free=32.06 MB, free_blocks=26
10246.679552 MB memory is available on Device 0, block_size None
    CPU time for vxc                                                     0.06 sec, wall time      0.06 sec, GPU time     62.68 ms
    CPU time for nr_rks_fxc                                              0.06 sec, wall time      0.06 sec, GPU time     64.15 ms
9.410 GB memory available on Device 0, block size = 64
    CPU time for vj and vk on Device 0                                   0.01 sec, wall time      0.01 sec, GPU time      8.72 ms
    CPU time for vj and vk                                               0.01 sec, wall time      0.01 sec, GPU time     10.42 ms
116992 on Device 0
0 - 116992 grids are calculated on Device 0.
mem_info: unallocated=9739.94 MB, used=30.33 MB, free=32.04 MB, free_blocks=26
10246.665728 MB memory is available on Device 0, block_size None
    CPU time for vxc                                                     0.06 sec, wall time      0.06 sec, GPU time     63.30 ms
    CPU time for nr_rks_fxc                                              0.06 sec, wall time      0.06 sec, GPU time     64.77 ms
9.410 GB memory available on Device 0, block size = 64
    CPU time for vj and vk on Device 0                                   0.01 sec, wall time      0.01 sec, GPU time      8.73 ms
    CPU time for vj and vk                                               0.01 sec, wall time      0.01 sec, GPU time     10.44 ms
116992 on Device 0
0 - 116992 grids are calculated on Device 0.
mem_info: unallocated=9739.94 MB, used=30.34 MB, free=32.03 MB, free_blocks=25
10246.651904 MB memory is available on Device 0, block_size None
    CPU time for vxc                                                     0.06 sec, wall time      0.06 sec, GPU time     62.74 ms
    CPU time for nr_rks_fxc                                              0.06 sec, wall time      0.06 sec, GPU time     64.21 ms
9.410 GB memory available on Device 0, block size = 64
    CPU time for vj and vk on Device 0                                   0.01 sec, wall time      0.01 sec, GPU time      8.73 ms
    CPU time for vj and vk                                               0.01 sec, wall time      0.01 sec, GPU time     10.44 ms
116992 on Device 0
0 - 116992 grids are calculated on Device 0.
mem_info: unallocated=9739.94 MB, used=30.19 MB, free=32.18 MB, free_blocks=25
10246.808064 MB memory is available on Device 0, block_size None
    CPU time for vxc                                                     0.05 sec, wall time      0.05 sec, GPU time     46.50 ms
    CPU time for nr_rks_fxc                                              0.05 sec, wall time      0.05 sec, GPU time     47.97 ms
9.410 GB memory available on Device 0, block size = 64
    CPU time for vj and vk on Device 0                                   0.01 sec, wall time      0.01 sec, GPU time      7.29 ms
    CPU time for vj and vk                                               0.01 sec, wall time      0.01 sec, GPU time      9.00 ms
116992 on Device 0
0 - 116992 grids are calculated on Device 0.
mem_info: unallocated=9739.94 MB, used=30.04 MB, free=32.33 MB, free_blocks=24
10246.969344 MB memory is available on Device 0, block_size None
    CPU time for vxc                                                     0.03 sec, wall time      0.03 sec, GPU time     29.61 ms
    CPU time for nr_rks_fxc                                              0.03 sec, wall time      0.03 sec, GPU time     31.13 ms
9.410 GB memory available on Device 0, block size = 64
    CPU time for vj and vk on Device 0                                   0.01 sec, wall time      0.01 sec, GPU time      5.72 ms
    CPU time for vj and vk                                               0.01 sec, wall time      0.01 sec, GPU time      7.44 ms
116992 on Device 0
0 - 116992 grids are calculated on Device 0.
mem_info: unallocated=9739.94 MB, used=30.04 MB, free=32.33 MB, free_blocks=25
10246.963712 MB memory is available on Device 0, block_size None
    CPU time for vxc                                                     0.03 sec, wall time      0.03 sec, GPU time     29.61 ms
    CPU time for nr_rks_fxc                                              0.03 sec, wall time      0.03 sec, GPU time     31.10 ms
9.410 GB memory available on Device 0, block size = 64
    CPU time for vj and vk on Device 0                                   0.01 sec, wall time      0.01 sec, GPU time      5.72 ms
    CPU time for vj and vk                                               0.01 sec, wall time      0.01 sec, GPU time      7.45 ms
